6
Properties=species:S:1:pos:R:3:forces:R:3 energy=-3149.63606991046 dipole="0.142610861538878 0.192858511719506 -0.255670801622537" free_energy=-3149.63606991046 pbc="F F F"
C       -0.00866432       1.39932398      -0.00539688       0.00021625      -0.00213741      -0.00002317
O       -0.00902563      -0.03065379       0.02190134      -0.03830053       0.02646736       0.06763132
H        1.01239733       1.81897117       0.00554551       0.00024679      -0.00017540       0.00010956
H       -0.55156193       1.80281914      -0.87782632      -0.00022032      -0.00016182      -0.00046569
H       -0.52605786       1.72814562       0.90491920      -0.00002163       0.00073220       0.00000541
H        0.44519397      -0.34644016      -0.77530272       0.03807944      -0.02472493      -0.06725743
6
Properties=species:S:1:pos:R:3:momenta:R:3:forces:R:3 energy=-3148.82448364786 dipole="0.12937904640234 0.111891694272534 -0.229771934276602" free_energy=-3148.82448364786 pbc="F F F"
C       -0.01199502       1.38854631       0.00106336      -0.15073805      -0.48788682       0.29246785       0.55099905       2.34845552      -1.04937785
O       -0.00899927      -0.03138072       0.02186672       0.00159990      -0.04383726      -0.00207987      -0.01885875       0.43302075       0.02355955
H        1.17663108       1.88064471       0.01023764       0.62393184       0.23429952       0.01782144      -3.14171348      -1.16548343      -0.08230788
H       -0.64263239       1.86282604      -1.01884021      -0.34597584       0.22796928      -0.53572176       1.72031537      -1.12403982       2.67954765
H       -0.56039571       1.74782572       0.96551841      -0.13045536       0.07476336       0.23021712       0.90048586      -0.53673955      -1.59057740
H        0.44563758      -0.34783957      -0.77800883       0.00168336      -0.00531216      -0.00268128      -0.01122805       0.04478654       0.01915593
6
Properties=species:S:1:pos:R:3:momenta:R:3:forces:R:3 energy=-3148.60971366338 dipole="-0.0735881528944372 0.197664464746231 -0.335165032277821" free_energy=-3148.60971366338 pbc="F F F"
C       -0.00993391       1.39955292      -0.00741321      -0.01885727       0.00336308      -0.03002750      -0.28698748       0.66136553       0.22017963
O        0.03342675      -0.03060895       0.04717883       0.84186738       0.00095994       0.50124867      -0.84414582      -1.55307449      -5.55151650
H        0.99979310       1.84840135       0.19010103      -0.01574496       0.03677184       0.23058000      -0.49520794      -0.24286618      -0.16463739
H       -0.39759134       1.77449833      -0.98667136       0.19236672      -0.03538080      -0.13598928       0.25624915      -0.02785782       0.58119367
H       -0.71863152       1.72853491       0.79424977      -0.24059952       0.00048384      -0.13826736       0.38963030       0.05141922      -0.37405584
H       -0.16227787      -0.35137830      -1.11955645      -0.75895344      -0.00616896      -0.42760368       0.98046178       1.11101374       5.28883643
6
Properties=species:S:1:pos:R:3:momenta:R:3:forces:R:3 energy=-3149.06902268591 dipole="0.140233957058355 0.154860248451176 -0.251490848604528" free_energy=-3149.06902268591 pbc="F F F"
C       -0.00597716       1.36239622      -0.00884862       0.08491777      -1.16686865      -0.10905988      -0.28033979       4.23943920       0.37394653
O       -0.00827966      -0.03731424       0.02068943       0.03135804      -0.28030248      -0.05103681      -0.10855623       0.48670270       0.17587789
H        0.93797857       1.98713788       0.04911950      -0.19734624       0.44595936       0.11555712       0.32887228      -1.45773786      -0.32545914
H       -0.55558332       1.97339994      -0.79082787      -0.01066464       0.45236016       0.23071104       0.14846697      -1.47864200      -0.45335067
H       -0.49188158       1.94604686       0.83452171       0.09062928       0.57784608      -0.18668160      -0.10372313      -1.84964845       0.26070004
H        0.44559841      -0.35735464      -0.77711242       0.00106848      -0.02893968       0.00050400       0.01527988       0.05988642      -0.03171465
6
Properties=species:S:1:pos:R:3:momenta:R:3:forces:R:3 energy=-3148.36612769902 dipole="0.190772962936195 0.173303608406312 -0.213451596306631" free_energy=-3148.36612769902 pbc="F F F"
C        0.01173303       1.39963377       0.00597538       0.93061228       0.01417298       0.51887520     -11.73671493      -3.32714687      -2.34323782
O       -0.00905610      -0.03064991       0.02188513      -0.00191988       0.00015999      -0.00095994       0.03633376       0.18454505       0.01517106
H        0.84662197       1.75471540       0.00834029      -0.63475776      -0.24603264       0.01070496      10.20185237       4.19532434      -0.22024438
H       -0.63433489       1.86334461      -1.01944040      -0.31693536       0.23174928      -0.54224352       1.62731960      -1.05516539       2.67878838
H       -0.51917227       1.72819496       0.90896820       0.02636928       0.00019152       0.01550304      -0.17601205      -0.00340858      -0.13637348
H        0.44429223      -0.34651208      -0.77778323      -0.00345744      -0.00027216      -0.00184464       0.04722126       0.00585145       0.00589624
6
Properties=species:S:1:pos:R:3:momenta:R:3:forces:R:3 energy=-3148.86706556266 dipole="0.170296221381123 0.173766597496055 -0.30525475997086" free_energy=-3148.86706556266 pbc="F F F"
C        0.00206009       1.39615086      -0.02451575       0.49605430      -0.14677442      -0.88436993      -2.50497713      -0.34592620       4.53634604
O       -0.00917052      -0.03070959       0.02216560      -0.00895944      -0.00335979       0.01631898       0.06568152       0.13374246      -0.12193635
H        0.97133178       1.80310139      -0.00001261      -0.15940512      -0.06160896      -0.02157120       1.67878017       0.67992784       0.25427333
H       -0.52479369       1.78739577      -0.84464927       0.10391472      -0.05987520       0.12879216      -1.12112170       0.66722635      -1.35003003
H       -0.63884465       1.79717917       1.10372588      -0.43782480       0.26797680       0.77173488       1.92502095      -1.10269957      -3.39446311
H        0.44678931      -0.34548493      -0.78010848       0.00618912       0.00370944      -0.01089648      -0.04338382      -0.03227088       0.07581012
6
Properties=species:S:1:pos:R:3:momenta:R:3:forces:R:3 energy=-3149.17372367074 dipole="0.145215054091396 0.184090846476552 -0.260653435760272" free_energy=-3149.17372367074 pbc="F F F"
C       -0.02330624       1.34541351       0.01940770      -0.39660322      -1.46029738       0.67189534       0.61896541       3.92809594      -1.02218196
O       -0.00674332       0.00256094       0.01814447       0.08239485       1.19848509      -0.13551153       0.18815652      -3.32514685      -0.35654613
H        1.03865054       1.67908025      -0.07347595       0.05968368      -0.31801392      -0.17964576      -0.26485254       0.66062303       0.40139876
H       -0.49242585       1.67186774      -0.93999687       0.13443696      -0.29769264      -0.14133168      -0.23508266       0.60633957       0.42576417
H       -0.50414502       1.89844517       0.86824794       0.04981536       0.38714256      -0.08336160       0.15858974      -0.94803670      -0.29231770
H        0.47613611      -0.13070249      -0.83537436       0.07033824       0.49044240      -0.13201776      -0.46577648      -0.92187499       0.84388286
6
Properties=species:S:1:pos:R:3:momenta:R:3:forces:R:3 energy=-3149.47071789121 dipole="0.137844569096609 0.162025881925731 -0.24682631227254" free_energy=-3149.47071789121 pbc="F F F"
C       -0.01002650       1.39491616      -0.00275479      -0.15073805      -0.48788682       0.29246785       0.37399239       1.30921945      -0.71547164
O       -0.00901485      -0.03095109       0.02188718       0.00159990      -0.04383726      -0.00207987      -0.00729311       0.16691476       0.00851090
H        1.07956516       1.84419423       0.00746448       0.62393184       0.23429952       0.01782144      -1.72730266      -0.64083266      -0.04947635
H       -0.58880766       1.82736058      -0.93549777      -0.34597584       0.22796928      -0.53572176       0.95341203      -0.62165986       1.47776011
H       -0.54010125       1.73619433       0.92970289      -0.13045536       0.07476336       0.23021712       0.41229063      -0.23522703      -0.72956248
H        0.44537540      -0.34701249      -0.77759150       0.00168336      -0.00531216      -0.00268128      -0.00509927       0.02158534       0.00823946
6
Properties=species:S:1:pos:R:3:momenta:R:3:forces:R:3 energy=-3149.13364352247 dipole="0.132833147873309 0.0165488561817539 -0.237218423392069" free_energy=-3149.13364352247 pbc="F F F"
C        0.00040510       1.32832625      -0.01906187       0.24142110      -1.88957052      -0.36369308      -0.46827282       5.40708850       0.67528862
O       -0.00930991       0.03982469       0.02084818      -0.01007937       2.49856383      -0.03727767       0.47177997      -7.02353231      -0.67478041
H        0.98943919       1.83683332       0.05774718      -0.05127696       0.03989664       0.11659536       0.02168557      -0.11190531      -0.18391971
H       -0.58615018       1.81613877      -0.83139107      -0.07725312       0.02975616       0.10372320       0.15199904      -0.08490643      -0.11901908
H       -0.53600026       1.55418830       0.92291109      -0.02220624      -0.38855376       0.04018896       0.05833675       0.88132965      -0.10333875
H        0.40912603      -0.47631458      -0.71438740      -0.08055936      -0.29009232       0.14052528      -0.23552851       0.93192589       0.40576933
6
Properties=species:S:1:pos:R:3:momenta:R:3:forces:R:3 energy=-3149.0868650704 dipole="0.167905637901855 0.183894806000336 -0.249185078518859" free_energy=-3149.0868650704 pbc="F F F"
C       -0.02730328       1.39840009      -0.01602616      -0.59262274      -0.02942695      -0.33798954       1.45977548       0.31789534       1.35927570
O       -0.01219769      -0.03089845       0.02065515      -0.13439160      -0.01039935      -0.05279670       0.37400517       0.03382828       0.17798792
H        0.95956459       1.93133878       0.13717410      -0.14098896       0.29985984       0.35125776       0.31987760      -0.85816546      -1.13848049
H       -0.45479346       1.70221546      -0.99106504       0.25822944      -0.26847072      -0.30218832      -0.55096209       0.74872085       0.89901026
H       -0.29443825       1.72777304       1.03583162       0.61808544      -0.00099792       0.34934256      -1.63918781      -0.19720948      -1.30638747
H        0.44208163      -0.34293948      -0.78017029      -0.00830592       0.00934416      -0.00765072       0.03649166      -0.04506953       0.00859408
6
Properties=species:S:1:pos:R:3:momenta:R:3:forces:R:3 energy=-3149.07710072836 dipole="0.140115319674 0.249331917852162 -0.25250538831502" free_energy=-3149.07710072836 pbc="F F F"
C        0.01286430       1.38992352      -0.04295854       0.65688159      -0.28682268      -1.14620973      -1.70283639       1.19075579       2.92293193
O       -0.02249196      -0.03840328       0.04587213      -0.54732579      -0.31502031       0.97433910       2.06032875       0.43770168      -3.66795611
H        1.01021996       1.86379043       0.09409308      -0.00557424       0.11477088       0.22675968      -0.14117872      -0.32255680      -0.55094234
H       -0.62922237       1.84966570      -0.82795027      -0.19887840       0.11996208       0.12772368       0.57312747      -0.33988835      -0.16970258
H       -0.52472085       1.59880858       0.90006086       0.00342720      -0.33120864      -0.01243872       0.05189694       0.92764869      -0.06095727
H        0.48090492      -0.07375605      -0.84376063       0.09144576       0.69830208      -0.17019072      -0.84133806      -1.89366100       1.52662637
6
Properties=species:S:1:pos:R:3:momenta:R:3:forces:R:3 energy=-3149.44502214511 dipole="0.14713459776882 0.186211956462792 -0.264256673241318" free_energy=-3149.44502214511 pbc="F F F"
C       -0.00876677       1.39923151      -0.00521166      -0.01285177      -0.01153056       0.02318123       0.06571614       0.04788391      -0.11754393
O       -0.01170119      -0.02856355       0.02660386      -0.44573214       0.34813824       0.78331104       1.56062961      -1.24997284      -2.74392596
H        1.01240339       1.81857716       0.00555708       0.00006048      -0.00413280       0.00012096      -0.00166201       0.01799452       0.00106434
H       -0.55157225       1.80242254      -0.87782028      -0.00011088      -0.00416304       0.00006048      -0.00038229       0.01778681       0.00199994
H       -0.52554517       1.72823036       0.90399257       0.00538272       0.00088704      -0.00972720      -0.02937101      -0.00323099       0.05253992
H        0.48837288      -0.37780882      -0.85323926       0.45317664      -0.32923296      -0.79698528      -1.59493044       1.16953858       2.80586569
6
Properties=species:S:1:pos:R:3:momenta:R:3:forces:R:3 energy=-3149.44307686768 dipole="0.141047190821933 0.173832625113514 -0.253295648476123" free_energy=-3149.44307686768 pbc="F F F"
C       -0.00707615       1.37749883      -0.00743694       0.08491777      -1.16686865      -0.10905988      -0.15844622       2.29332061       0.22334910
O       -0.00858474      -0.03459027       0.02118507       0.03135804      -0.28030248      -0.05103681      -0.06328347       0.36243531       0.09905161
H        0.96841413       1.91836156       0.03129874      -0.19734624       0.44595936       0.11555712       0.23258374      -0.81661133      -0.19604228
H       -0.55393867       1.90363631      -0.82640824      -0.01066464       0.45236016       0.23071104       0.06838422      -0.83024359      -0.30359284
H       -0.50585890       1.85693025       0.86331267       0.09062928       0.57784608      -0.18668160      -0.08595530      -1.04905290       0.19306344
H        0.44543300      -0.35289087      -0.77719025       0.00106848      -0.02893968       0.00050400       0.00671703       0.04015190      -0.01582903
6
Properties=species:S:1:pos:R:3:momenta:R:3:forces:R:3 energy=-3149.22249645428 dipole="0.17328536773472 0.186150066030927 -0.23320292162924" free_energy=-3149.22249645428 pbc="F F F"
C        0.00339098       1.39950707       0.00132438       0.93061228       0.01417298       0.51887520      -5.74303772      -1.11882316      -1.81862129
O       -0.00904364      -0.03065150       0.02189176      -0.00191988       0.00015999      -0.00095994       0.01686245       0.06420725       0.00866033
H        0.91442029       1.78099454       0.00719729      -0.63475776      -0.24603264       0.01070496       4.63950540       1.85974526      -0.09120853
H       -0.60048265       1.83859108      -0.96152349      -0.31693536       0.23174928      -0.54224352       1.17811444      -0.80485162       1.97445573
H       -0.52198832       1.72817478       0.90731225       0.02636928       0.00019152       0.01550304      -0.11625192      -0.00225171      -0.07910396
H        0.44466102      -0.34648267      -0.77758671      -0.00345744      -0.00027216      -0.00184464       0.02480735       0.00197397       0.00581772
6
Properties=species:S:1:pos:R:3:momenta:R:3:forces:R:3 energy=-3149.32064679479 dipole="0.157092465442962 0.183880822454722 -0.281999502933475" free_energy=-3149.32064679479 pbc="F F F"
C       -0.00232595       1.39744859      -0.01669657       0.49605430      -0.14677442      -0.88436993      -1.82702186       0.11977015       3.28235430
O       -0.00911127      -0.03068677       0.02205752      -0.00895944      -0.00335979       0.01631898       0.03952975       0.05615954      -0.07279757
H        0.98812665       1.80959177       0.00226053      -0.15940512      -0.06160896      -0.02157120       0.92775983       0.36940727       0.13772698
H       -0.53574129       1.79370357      -0.85821792       0.10391472      -0.05987520       0.12879216      -0.61611332       0.36169905      -0.74633877
H       -0.59271744       1.76894603       1.02241851      -0.43782480       0.26797680       0.77173488       1.50328081      -0.88778566      -2.64907144
H        0.44613685      -0.34587560      -0.77896099       0.00618912       0.00370944      -0.01089648      -0.02743522      -0.01925035       0.04812651
6
Properties=species:S:1:pos:R:3:momenta:R:3:forces:R:3 energy=-3148.95414895107 dipole="0.149356374220936 0.185150734630923 -0.268179329996599" free_energy=-3148.95414895107 pbc="F F F"
C       -0.00888246       1.39912709      -0.00500251      -0.01285177      -0.01153056       0.02318123       0.13936915       0.07273267      -0.24885719
O       -0.01472245      -0.02620324       0.03191397      -0.44573214       0.34813824       0.78331104       2.29549510      -1.87548228      -4.03485352
H        1.01241024       1.81813223       0.00557015       0.00006048      -0.00413280       0.00012096      -0.00538392       0.03285854       0.00559905
H       -0.55158390       1.80197471      -0.87781346      -0.00011088      -0.00416304       0.00006048      -0.00252048       0.03262287       0.00747321
H       -0.52496623       1.72832605       0.90294622       0.00538272       0.00088704      -0.00972720      -0.06590528      -0.00648839       0.11751862
H        0.53713068      -0.41323045      -0.93898712       0.45317664      -0.32923296      -0.79698528      -2.36105458       1.74375658       4.15311983
6
Properties=species:S:1:pos:R:3:momenta:R:3:forces:R:3 energy=-3149.33759005675 dipole="0.130201943998567 0.191622587001143 -0.23404816154043" free_energy=-3149.33759005675 pbc="F F F"
C       -0.00399493       1.40668878      -0.01483700       0.19962282       0.31480831      -0.40344949      -0.32323265      -0.48334440       0.70538265
O       -0.00612358      -0.02873384       0.01664766       0.16526967       0.10927317      -0.29902131      -0.34511430      -0.29385734       0.62820440
H        1.04491048       1.73714095       0.16546242       0.11662560      -0.29351952       0.57360240      -0.39811620       0.54671042      -1.18729849
H       -0.69987120       1.71513582      -0.82691795      -0.53197200      -0.31451616       0.18259920       1.17169888       0.60092460      -0.24609368
H       -0.50753897       1.81658144       0.88210224       0.06642720       0.31720752      -0.08183952      -0.13184010      -0.66688776       0.14913707
H        0.44077069      -0.38359255      -0.76943901      -0.01586592      -0.13325760       0.02820384       0.02660436       0.29645447      -0.04933194
6
Properties=species:S:1:pos:R:3:momenta:R:3:forces:R:3 energy=-3149.18395129354 dipole="0.14105800903886 0.180040683820539 -0.252940533338517" free_energy=-3149.18395129354 pbc="F F F"
C        0.03653287       1.39953557       0.02076590       1.27052358       0.00600550       0.73543353      -2.52811096       0.69923916      -1.74075111
O       -0.02912644      -0.03087728       0.01048137      -0.75275295      -0.00831948      -0.42765327       1.45106772      -0.47120610       0.91057734
H        0.96058940       2.05683935      -0.05470481      -0.12223008       0.56118384      -0.14214816      -0.31501434      -1.33667760       0.23963333
H       -0.62451499       1.55769653      -0.89177433      -0.17211600      -0.57829968      -0.03291120       0.78495890       1.23456909       0.55953080
H       -0.61945197       1.73137574       0.85147170      -0.22033872       0.00762048      -0.12609072       0.59893520      -0.09181691       0.01961423
H        0.44383374      -0.34138975      -0.78014630      -0.00320544       0.01191456      -0.00671328       0.00816347      -0.03410763       0.01139540
6
Properties=species:S:1:pos:R:3:momenta:R:3:forces:R:3 energy=-3149.48687376832 dipole="0.144884996993469 0.189945625060885 -0.260171285644801" free_energy=-3149.48687376832 pbc="F F F"
C       -0.01731803       1.36746165       0.00926320      -0.39660322      -1.46029738       0.67189534       0.38372545       1.99024842      -0.64167924
O       -0.00767673      -0.01102312       0.01968094       0.08239485       1.19848509      -0.13551153       0.03517551      -1.68345514      -0.07377505
H        1.02791358       1.73629243      -0.04115799       0.05968368      -0.31801392      -0.17964576      -0.12846927       0.35912836       0.21498306
H       -0.51661115       1.72542386      -0.91457054       0.13443696      -0.29769264      -0.14133168      -0.13242068       0.33148507       0.21813258
H       -0.51310687       1.82879656       0.88324565       0.04981536       0.38714256      -0.08336160       0.04118592      -0.48910171      -0.07972734
H        0.46348149      -0.21893425      -0.81162439       0.07033824       0.49044240      -0.13201776      -0.19919693      -0.50830501       0.36206598
6
Properties=species:S:1:pos:R:3:momenta:R:3:forces:R:3 energy=-3149.14481111185 dipole="0.13327780911517 0.134106675493778 -0.237621124541264" free_energy=-3149.14481111185 pbc="F F F"
C       -0.01115314       1.39127049      -0.00056954      -0.15073805      -0.48788682       0.29246785       0.52221811       2.01357230      -0.99603155
O       -0.00900593      -0.03119698       0.02187547       0.00159990      -0.04383726      -0.00207987      -0.01454648       0.31391828       0.01831167
H        1.13511907       1.86505600       0.00905165       0.62393184       0.23429952       0.01782144      -2.66237952      -0.98866845      -0.06914541
H       -0.61961326       1.84765859      -0.98319730      -0.34597584       0.22796928      -0.53572176       1.45999923      -0.95587237       2.27543106
H       -0.55171642       1.74285134       0.95020125      -0.13045536       0.07476336       0.23021712       0.70439274      -0.41714498      -1.24488802
H        0.44552545      -0.34748585      -0.77783035       0.00168336      -0.00531216      -0.00268128      -0.00968408       0.03419522       0.01632225
6
Properties=species:S:1:pos:R:3:momenta:R:3:forces:R:3 energy=-3149.45063621567 dipole="0.142565103898802 0.226329907282137 -0.256674651520842" free_energy=-3149.45063621567 pbc="F F F"
C        0.00405959       1.39376809      -0.02759668       0.65688159      -0.28682268      -1.14620973      -1.01693432       0.59409851       1.75248059
O       -0.01698454      -0.03523392       0.03606863      -0.54732579      -0.31502031       0.97433910       1.11687554       0.30730016      -1.98902518
H        1.01111046       1.84546038       0.05787916      -0.00557424       0.11477088       0.22675968      -0.04359598      -0.18356026      -0.33144055
H       -0.59746103       1.83050653      -0.84834843      -0.19887840       0.11996208       0.12772368       0.32170127      -0.19250563      -0.13903773
H       -0.52526765       1.65170446       0.90204781       0.00342720      -0.33120864      -0.01243872       0.01977939       0.52802013      -0.01722596
H        0.46629996      -0.18527760      -0.81658087       0.09144576       0.69830208      -0.17019072      -0.39782590      -1.05335291       0.72424883
6
Properties=species:S:1:pos:R:3:momenta:R:3:forces:R:3 energy=-3149.18415328655 dipole="-0.0288455358017277 0.192435667045555 -0.327555357973149" free_energy=-3149.18415328655 pbc="F F F"
C       -0.00961300       1.39949505      -0.00690356      -0.01885727       0.00336308      -0.03002750      -0.17819332       0.42148949       0.16604203
O        0.02269641      -0.03062028       0.04078965       0.84186738       0.00095994       0.50124867      -0.14254734      -1.36874513      -4.54446976
H        1.00297897       1.84096252       0.14345246      -0.01574496       0.03677184       0.23058000      -0.28690869      -0.13568358      -0.09974484
H       -0.43650921       1.78165675      -0.95915950       0.19236672      -0.03538080      -0.13598928       0.14990296      -0.03058856       0.33651197
H       -0.66995627       1.72843651       0.82222277      -0.24059952       0.00048384      -0.13826736       0.22223119       0.05580595      -0.20831070
H       -0.00873224      -0.35013012      -1.03304780      -0.75895344      -0.00616896      -0.42760368       0.23551519       1.05772184       4.34997130
6
Properties=species:S:1:pos:R:3:momenta:R:3:forces:R:3 energy=-3149.48054217641 dipole="0.137835270705207 0.0932282469942931 -0.24690131491164" free_energy=-3149.48054217641 pbc="F F F"
C       -0.00330408       1.35736269      -0.01347320       0.24142110      -1.88957052      -0.36369308      -0.26631859       2.58582641       0.39256570
O       -0.00919365       0.01100061       0.02127890      -0.01007937       2.49856383      -0.03727767       0.18823257      -3.38995348      -0.24538530
H        0.99882854       1.82952811       0.03639790      -0.05127696       0.03989664       0.11659536       0.02682985      -0.05357159      -0.11117887
H       -0.57200438       1.81069135      -0.85038202      -0.07725312       0.02975616       0.10372320       0.08503510      -0.03781803      -0.08370122
H       -0.53193405       1.62533285       0.91555282      -0.02220624      -0.38855376       0.04018896       0.03447456       0.46220323      -0.06311934
H        0.42387699      -0.42319892      -0.74011833      -0.08055936      -0.29009232       0.14052528      -0.06825349       0.43331345       0.11081903
6
Properties=species:S:1:pos:R:3:momenta:R:3:forces:R:3 energy=-3149.56964508754 dipole="0.0440321937578202 0.191411387212229 -0.303723890803784" free_energy=-3149.56964508754 pbc="F F F"
C       -0.00918355       1.39941761      -0.00622151      -0.01885727       0.00336308      -0.03002750      -0.05891706       0.13616869       0.05370297
O        0.00833642      -0.03063545       0.03223925       0.84186738       0.00095994       0.50124867       0.31558751      -0.63719908      -1.93173895
H        1.00724249       1.83100744       0.08102449      -0.01574496       0.03677184       0.23058000      -0.08580743      -0.04229507      -0.04005864
H       -0.48859149       1.79123658      -0.92234145       0.19236672      -0.03538080      -0.13598928       0.04186893      -0.01392517       0.10964447
H       -0.60481607       1.72830483       0.85965794      -0.24059952       0.00048384      -0.13826736       0.07444409       0.01594781      -0.05874520
H        0.19675192      -0.34845974      -0.91727664      -0.75895344      -0.00616896      -0.42760368      -0.28717604       0.54130281       1.86719536
6
Properties=species:S:1:pos:R:3:momenta:R:3:forces:R:3 energy=-3149.58844835164 dipole="0.140203045706809 0.177500371604689 -0.25156782160027" free_energy=-3149.58844835164 pbc="F F F"
C       -0.00936062       1.39707083      -0.00404632      -0.15073805      -0.48788682       0.29246785       0.22266215       0.74294921      -0.42410438
O       -0.00902012      -0.03080576       0.02189410       0.00159990      -0.04383726      -0.00207987      -0.00360639       0.08347684       0.00359229
H        1.04673153       1.83186445       0.00652643       0.62393184       0.23429952       0.01782144      -0.97835495      -0.36315826      -0.03029376
H       -0.57060084       1.81536400      -0.90730625      -0.34597584       0.22796928      -0.53572176       0.54218981      -0.35312052       0.83682860
H       -0.53323643       1.73225988       0.91758788      -0.13045536       0.07476336       0.23021712       0.21932816      -0.12195899      -0.38919715
H        0.44528671      -0.34673272      -0.77745034       0.00168336      -0.00531216      -0.00268128      -0.00221878       0.01181172       0.00317440
6
Properties=species:S:1:pos:R:3:momenta:R:3:forces:R:3 energy=-3149.31265210346 dipole="0.135483845700336 0.147274919009726 -0.242067016997995" free_energy=-3149.31265210346 pbc="F F F"
C       -0.01063284       1.39295413      -0.00157873      -0.15073805      -0.48788682       0.29246785       0.47195878       1.73127441      -0.90281417
O       -0.00901005      -0.03108342       0.02188088       0.00159990      -0.04383726      -0.00207987      -0.01145415       0.24358582       0.01448736
H        1.10946324       1.85542165       0.00831867       0.62393184       0.23429952       0.01782144      -2.27769456      -0.84627031      -0.05989095
H       -0.60538666       1.83828459      -0.96116877      -0.34597584       0.22796928      -0.53572176       1.25138021      -0.81942814       1.94886042
H       -0.54635232       1.73977701       0.94073472      -0.13045536       0.07476336       0.23021712       0.57377045      -0.33699579      -1.01406746
H        0.44545615      -0.34726724      -0.77772005       0.00168336      -0.00531216      -0.00268128      -0.00796072       0.02783401       0.01342479
6
Properties=species:S:1:pos:R:3:momenta:R:3:forces:R:3 energy=-3149.3289687895 dipole="0.160048747484542 0.18779135153851 -0.250446398743896" free_energy=-3149.3289687895 pbc="F F F"
C       -0.02259206       1.39863362      -0.01333949      -0.59262274      -0.02942695      -0.33798954       1.14110039       0.19981434       0.97537355
O       -0.01139592      -0.03083661       0.02097014      -0.13439160      -0.01039935      -0.05279670       0.28254822       0.02463990       0.12800630
H        0.97291868       1.90293655       0.10390343      -0.14098896       0.29985984       0.35125776       0.24743720      -0.64918883      -0.83228254
H       -0.47925283       1.72764422      -0.96244263       0.25822944      -0.26847072      -0.30218832      -0.45311583       0.56935619       0.65975134
H       -0.35298282       1.72786721       1.00274197       0.61808544      -0.00099792       0.34934256      -1.24322751      -0.11535265      -0.93969386
H        0.44286831      -0.34382432      -0.77944548      -0.00830592       0.00934416      -0.00765072       0.02525753      -0.02926895       0.00884522
6