6
Properties=species:S:1:pos:R:3:momenta:R:3:forces:R:3 energy=-3149.32913119946 free_energy=-3149.32913119946 dipole="0.160048747484574 0.187791351538392 -0.250446398743955" pbc="F F F"
C       -0.02259206       1.39863362      -0.01333949     -20.32586890     -43.63755818    -112.36983727       1.14110039       0.19981434       0.97537355
O       -0.01139592      -0.03083661       0.02097014      61.18388217     -15.62145112     122.59427850       0.28254822       0.02463990       0.12800630
H        0.97291868       1.90293655       0.10390343      14.88361129       3.56882390      -2.22064375       0.24743720      -0.64918883      -0.83228254
H       -0.47925283       1.72764422      -0.96244263     -24.48385001      22.78816114     -23.74366634      -0.45311583       0.56935619       0.65975134
H       -0.35298282       1.72786721       1.00274197       9.80096033     -36.55891421      -6.82025754      -1.24322751      -0.11535265      -0.93969386
H        0.44286831      -0.34382432      -0.77944548       7.99379564      31.76458340      24.84256472       0.02525753      -0.02926895       0.00884522
6
Properties=species:S:1:pos:R:3:momenta:R:3:forces:R:3 energy=-3149.25545970119 free_energy=-3149.25545970119 dipole="0.195670527746973 0.180764681116892 -0.249149036892806" pbc="F F F"
C       -0.05720152       1.36730842      -0.12366123      27.49255935     -33.76789476     -88.34558737       1.34422280      -0.52536725      -1.74163494
O        0.08652674      -0.05056565       0.13773837      63.56850944     -10.22580149     119.21186511       1.68413907      -0.17645556      -0.69399610
H        0.89656276       1.96939280      -0.34174613       5.62052847     -12.60562056     -18.16539895      -0.50653880      -1.12604263      -0.11882734
H       -0.68224537       1.37960918      -1.06571690     -31.17485146      12.78923456      -6.20629653      -0.10124823       1.06260772       1.19653266
H       -0.31105205       1.81542924       0.81719208     -20.23912123     -28.06652759     -10.43789789      -1.40486737       0.36369789       0.38406564
H        0.75654763      -0.39953762      -0.52703322       4.30155438      33.78100080       6.24940222      -1.01570746       0.40155983       0.97386007
6
Properties=species:S:1:pos:R:3:momenta:R:3:forces:R:3 energy=-3149.42109595171 free_energy=-3149.42109595171 dipole="0.121195200966651 0.119001684522757 -0.313174936744451" pbc="F F F"
C       -0.09068970       1.28871610      -0.24396596      87.24042667     -45.05783034    -100.75716707       0.32280321      -0.58703000      -0.68859847
O        0.21042193      -0.02224864       0.25815285      61.72820415      15.23773638     128.03268658       1.46686060      -0.66883334      -0.59635583
H        0.76670871       1.88452952      -0.64668787     -13.54974909     -22.50944998     -17.87867738      -0.00432441      -0.52568839       0.17815470
H       -0.77594004       1.07597857      -1.10043763     -26.25453437       3.10855449      17.38694840      -0.30710793       1.10684548       0.58679029
H       -0.42434989       1.84033387       0.64373397     -58.43845548      -5.31386046       1.74274275      -0.73587669       0.08749270      -0.40265256
H        0.75887702      -0.49650641      -0.43420140      -0.51894286      15.94589982     -26.19091704      -0.74235480       0.58721356       0.92266187
6
Properties=species:S:1:pos:R:3:momenta:R:3:forces:R:3 energy=-3149.47212713671 free_energy=-3149.47212713671 dipole="-0.0424179242261913 -0.00912757891170388 -0.350649819440123" pbc="F F F"
C       -0.13304555       1.17531666      -0.36170145     105.12495293     -78.13785693     -61.14998282      -0.88932135      -0.00353057       1.89941562
O        0.35614973       0.03936906       0.36133027      70.05039150      65.65162500      97.97776497       0.06322935       0.02325331       0.38341431
H        0.66544632       1.72653700      -0.81516947     -11.26257776     -11.78891433     -22.80706828       0.85391404       0.64125006      -0.41058217
H       -0.82539323       0.86983070      -1.16264735     -37.12320749       2.95955362      22.19076671      -0.38918761       0.29426007       0.29384202
H       -0.58609953       1.81928317       0.49952979     -60.89350986     -11.64780089     -12.53414955       0.27223540      -0.74937316      -1.78278562
H        0.51416654      -0.69971285      -0.23574897     -14.79481293      -6.31692995     -21.29875509       0.08913017      -0.20585972      -0.38330417
6
Properties=species:S:1:pos:R:3:momenta:R:3:forces:R:3 energy=-3149.4227944847 free_energy=-3149.4227944847 dipole="-0.117648572767569 -0.0914472044256289 -0.31465160483155" pbc="F F F"
C       -0.17234466       1.04382904      -0.45982744      64.01145643    -100.79911393     -28.58401874      -0.45044000       0.03222881       1.18593697
O        0.47810161       0.11058116       0.44789231      61.61993235      66.76993654      61.93399832      -0.65823156       1.43463089       0.57945213
H        0.63479445       1.47820285      -1.03223861      16.60838792      -1.56913880     -22.77168024       0.17252638       0.69451226      -0.54895043
H       -0.94893598       0.64211565      -1.18289780     -53.28937512      19.87115617      15.52601062       0.57108818       0.04070250       0.92167745
H       -0.63154675       1.80872394       0.26117940     -37.93940490     -27.47187085     -29.77425022       0.37403600      -0.72293294      -1.23537694
H        0.52533716      -0.75956289       0.09484507       1.06325356       3.17329615       6.09573752      -0.00897901      -1.47914153      -0.90273919
6
Properties=species:S:1:pos:R:3:momenta:R:3:forces:R:3 energy=-3149.41824504823 free_energy=-3149.41824504823 dipole="-0.0692556887517221 -0.13307908963716 -0.300623276194571" pbc="F F F"
C       -0.17271344       0.89945173      -0.51955797      11.93107568    -105.14502043     -33.17720615      -0.03084433      -1.79164330      -1.26382405
O        0.55405051       0.19840195       0.51688525      77.10063003      37.52659172      51.50447693      -0.87956256       0.62897113       0.40117625
H        0.60544921       1.09395872      -1.31653390      20.40456584      -9.66504978      -5.75409551      -1.10062284       0.48524435       0.28506218
H       -1.08203855       0.31707355      -1.00328636     -46.60683180      34.59475999      11.89724910       1.61262858       0.54711350       0.81933303
H       -0.64845809       1.76770461      -0.07453016     -26.20693853     -22.87142158     -35.63743028       0.35499668       0.52509348       0.10885161
H        0.80084315      -0.67981492       0.21237323      15.74365559      25.31308098      13.60744065       0.04340448      -0.39477916      -0.35059903
6
Properties=species:S:1:pos:R:3:momenta:R:3:forces:R:3 energy=-3149.30529619919 free_energy=-3149.30529619919 dipole="0.0460996673090838 -0.14823091487807 -0.284664649614076" pbc="F F F"
C       -0.14510811       0.74018683      -0.56026576       4.10445681    -126.48583829      -7.26885289      -1.49447448      -2.11914299      -1.09705427
O        0.60178005       0.28875208       0.55480948      87.10719098      51.19388706      27.76355507       0.60682802      -0.14198865       0.66672175
H        0.49847786       0.63088104      -1.49110832       7.33138747      -7.47295106      19.41853280      -1.02831719       0.63237845       0.58574527
H       -1.13629940       0.10363119      -0.67436508     -15.25485798      34.32287576       4.78144713       1.66110918       0.37884168      -0.20640764
H       -0.65822384       1.70416424      -0.40176209     -30.26788615     -10.01578353     -42.59370612       1.13065471       0.35491732       0.16393700
H        1.19140810      -0.47984173       0.32929319      -0.29432637      17.93338649       0.35738524      -0.87580024       0.89499419      -0.11294211
6
Properties=species:S:1:pos:R:3:momenta:R:3:forces:R:3 energy=-3149.24572066757 free_energy=-3149.24572066757 dipole="0.0354858136927983 -0.219160459875091 -0.234433654822828" pbc="F F F"
C       -0.12888033       0.55032953      -0.59497254      19.78913383    -111.62399573      47.64006070      -2.28884548      -0.33489175       0.83523032
O        0.67179475       0.40016327       0.57000047      30.95220105      83.46342257     -33.20033381       0.87517925       0.19104988       0.65357889
H        0.38642948       0.27378562      -1.51323092      -7.33280200       4.96185169      17.31167663      -0.10352923       0.11529930      -0.34865064
H       -1.10531626      -0.00907570      -0.43551356      23.93186184      21.92751878       4.63026163       0.93157033      -0.60560799      -0.54590258
H       -0.68488340       1.54584710      -0.64353650     -12.52778620     -30.66508064     -39.05361204       1.74922513      -0.23602313       0.11031639
H        1.31002512      -0.36887068       0.58816076      -1.58421488      -8.97425516       5.15681081      -1.16359999       0.87017369      -0.70457238
6
Properties=species:S:1:pos:R:3:momenta:R:3:forces:R:3 energy=-3149.2859042093 free_energy=-3149.2859042093 dipole="-0.0888857601621528 -0.294213414933728 -0.132430212810296" pbc="F F F"
C       -0.12391556       0.34991564      -0.59675503      22.46326863     -74.56306396      47.13376558       0.51759767       0.28917220       1.21336167
O        0.75306609       0.52633642       0.55677470       5.41484587      75.24028887     -47.83664154      -0.55345357       1.47735787      -0.58599089
H        0.39750778      -0.02350773      -1.46517699     -20.61384273       1.10295499     -16.13322153       0.15586521      -0.41375979      -0.45273367
H       -1.01238771      -0.17071796      -0.33007416      34.88516183       7.60970764      11.99807110      -0.68968466      -1.78671737       0.29325707
H       -0.66807064       1.26014404      -0.86423604      12.99395743     -42.29036605     -21.96904436       0.98393540       1.02379382       0.13507430
H        1.16461861      -0.25681814       0.94834957      -1.70863354      -8.16764327      29.30272153      -0.41426004      -0.58984672      -0.60296848
6
Properties=species:S:1:pos:R:3:momenta:R:3:forces:R:3 energy=-3149.1856482856 free_energy=-3149.1856482856 dipole="-0.1600871339828 -0.301104382197944 -0.0142450470798753" pbc="F F F"
C       -0.09044512       0.17141705      -0.55166013      28.73837570     -75.86556923      20.07019927       2.74583019      -0.60122447       0.62480602
O        0.80393694       0.63173293       0.50766599      21.47974143      70.27830957      -3.16263064      -0.93778049       2.54593936      -2.35323922
H        0.50011644      -0.34076172      -1.32572736     -20.24685355     -17.56621241     -22.76713499      -0.14422003      -0.54150197       0.16274152
H       -0.90344940      -0.36155438      -0.18424714       2.16107822     -22.29906374      20.36098372      -1.37081325      -1.92510747       0.96512133
H       -0.61127688       0.90401031      -1.09767112      18.99060227     -11.45878052     -26.43713968      -0.14073589       2.33879947      -0.33864328
H        1.01837968       0.04054520       1.20065607       2.66645198      15.56991713      14.44515200      -0.15228053      -1.81690492       0.93921364
6
Properties=species:S:1:pos:R:3:momenta:R:3:forces:R:3 energy=-3149.31985765023 free_energy=-3149.31985765023 dipole="-0.0870740351432186 -0.297396331767504 0.0661717470935918" pbc="F F F"
C       -0.01333977       0.02131412      -0.47310709      34.63448865     -54.51092094      35.20098254      -0.15874726      -1.90613090      -0.06666458
O        0.81003535       0.71860949       0.43514509      19.15633129      63.35266021      -4.73955672      -0.25491899       2.24373475      -1.32204861
H        0.59803287      -0.69928732      -1.04867983     -11.08721424     -29.10863367       4.18263290      -0.08969822      -0.56620724       0.38541355
H       -0.87824845      -0.47871789       0.02366922     -16.12402059     -42.68007902      24.35015116       0.43115318      -0.06057644      -0.12856592
H       -0.46647720       0.53797899      -1.33266490      20.86412044      -2.43680663     -39.01624008       0.24938023       1.37204440       0.62923121
H        1.07165522       0.26458990       1.22816424       6.55733833      23.87957634     -17.45905403      -0.17716894      -1.08286457       0.50263433
6
Properties=species:S:1:pos:R:3:momenta:R:3:forces:R:3 energy=-3149.22239159766 free_energy=-3149.22239159766 dipole="0.0357804500996535 -0.299519052208868 0.101956825665716" pbc="F F F"
C        0.07445651      -0.12778822      -0.39633337      31.61938185       3.21545424      41.88747248      -1.74584833      -2.52038933       0.16217861
O        0.80071392       0.80199647       0.35947723      -7.85938668      12.96221813     -65.55515519       0.47217875       1.11742643      -0.02692993
H        0.65847802      -1.03978210      -0.66030754       0.42108520     -27.01396278      33.51550796       0.02491147      -0.02245067       0.61741833
H       -0.90837928      -0.49348775       0.17569993       4.97473111     -34.48314002      17.41582735       1.64740394       0.63355990      -1.09988497
H       -0.23956483       0.12234591      -1.46526918      28.21449894     -10.75637561      -4.83938936       0.35204381       1.10212757       1.39697595
H        1.25781705       0.45757225       1.16922439      -3.17448405      14.42601675     -19.89146081      -0.75068964      -0.31027389      -1.04975800
6
Properties=species:S:1:pos:R:3:momenta:R:3:forces:R:3 energy=-3149.26391356932 free_energy=-3149.26391356932 dipole="0.0393810045369015 -0.284435484021235 0.153322040654216" pbc="F F F"
C        0.16484369      -0.28927580      -0.30852430      18.58894390      -6.87142416      20.39476796      -1.13263617      -1.79918973       2.12552515
O        0.79653421       0.87901992       0.26411159     -15.60486176      -8.75399236     -99.15598108       0.42254767      -0.27316040      -0.09627972
H        0.72578258      -1.28665636      -0.24719569      -3.67100902     -13.46061821      45.66570831      -0.10775277       1.14436466       0.49693946
H       -0.87636287      -0.49799721       0.23946726      38.41529474     -24.14646848       8.66350001       1.76577316       0.40564484      -1.13203108
H       -0.00392284      -0.25375444      -1.38994180      22.43975125       3.54700022      22.57202210      -0.02888247       1.06438949      -0.01937713
H        1.25855659       0.75204356       1.14727267      -5.62252739       7.76996029       4.41263588      -0.91904942      -0.54204886      -1.37477668
6
Properties=species:S:1:pos:R:3:momenta:R:3:forces:R:3 energy=-3149.41439318867 free_energy=-3149.41439318867 dipole="-0.0694008289149727 -0.21931293227926 0.233415789698414" pbc="F F F"
C        0.27152983      -0.40863389      -0.18555730      10.21534205     -87.21468806      43.11316621       0.02073822      -0.99134617       2.70540275
O        0.79152460       0.90976929       0.14071341       5.79379195      13.28180184     -97.90341857       0.05806120      -0.64610388      -0.86550121
H        0.86210939      -1.34559474       0.15302355     -19.21110574       7.56504338      42.63583761      -0.03657958       1.47324367      -0.12242483
H       -0.72422022      -0.59365984       0.30342651      61.11639696     -15.19468155       5.53072786       0.34137867       0.35564968      -0.49532839
H        0.19461521      -0.53853170      -1.23980599       9.56007373      18.30422702      -7.89859797      -0.13237846       0.49500106      -1.12421436
H        0.93115251       1.08711371       1.08946984     -12.98029788      21.38199243      17.07172028      -0.25122005      -0.68644437      -0.09793396
6
Properties=species:S:1:pos:R:3:momenta:R:3:forces:R:3 energy=-3149.36328018841 free_energy=-3149.36328018841 dipole="-0.166225927554923 -0.13954425313198 0.268416751317688" pbc="F F F"
C        0.39144865      -0.47033444      -0.05162925      50.99194585    -114.31291896      56.61513896       1.91788236      -0.89084191      -0.24306891
O        0.77391033       0.89070140       0.02109720     -10.44861796      14.73992974     -80.16694701       0.78832436      -0.56368104      -2.00825827
H        1.00095237      -1.21550094       0.54338357     -29.82489307      27.89256618      34.24636164       0.56388369       0.75618960      -0.51233927
H       -0.51786463      -0.67521998       0.40471936      39.34000703      -7.10701756      18.51494248      -2.68081482      -0.01448414       0.48447253
H        0.40410481      -0.80731002      -1.11765641      10.41671769      16.58052844     -20.87614100      -0.07914704       0.39864340       0.63339929
H        0.58043785       1.30524917       0.84162566      -5.92557516      20.28883203      -5.78329954      -0.51012855       0.31417408       1.64579462
6
Properties=species:S:1:pos:R:3:momenta:R:3:forces:R:3 energy=-3149.35141316776 free_energy=-3149.35141316776 dipole="-0.143725487419047 -0.110573994107616 0.302144097488999" pbc="F F F"
C        0.51936213      -0.51509913       0.07415033     117.16541339     -56.42354441      19.98368284       0.52513454      -0.68558222       0.29392437
O        0.74096267       0.85972922      -0.10196599     -46.76193224     -51.81159165     -47.24416322       0.53519352       0.09898528      -1.15552744
H        1.04867629      -0.97710843       0.91653124     -26.95764077      42.08344869      25.06394806       1.47939277       0.00739681      -0.16481654
H       -0.42493908      -0.76298197       0.50198490     -11.19167045      -3.08191166      32.88116610      -2.02649478       0.02361795      -0.54579480
H        0.72270748      -1.03167938      -0.89241626      10.55778846      23.23312593       0.76472243      -0.18438874       0.21462262       0.65983887
H        0.47875019       1.35983228       0.66399847      11.96207732       3.91413486     -28.89038211      -0.32883731       0.34095956       0.91237554
6
Properties=species:S:1:pos:R:3:momenta:R:3:forces:R:3 energy=-3149.26994572155 free_energy=-3149.26994572155 dipole="-0.0620350942151664 -0.0872358507173218 0.349251499263108" pbc="F F F"
C        0.65393707      -0.55914802       0.20863000     106.89867591     -28.71120202      21.83015417      -1.93675941       1.20257218       1.99699832
O        0.69779668       0.82000859      -0.23297587     -34.94454255     -80.40524636     -13.84840034      -0.29174314       0.11706456       0.75414820
H        1.04953778      -0.69603564       1.21914567     -12.66800001      52.38424663      14.42419897       1.61271347      -0.00151772      -0.11622969
H       -0.36423112      -0.92388366       0.57729528     -16.57248245       3.83402923      14.27032017       0.09588748       0.34712458      -1.58084106
H        1.07651530      -1.11797098      -0.59282103       8.08526907      10.34615470      -2.67477473       0.38707242      -0.88306733      -0.39192218
H        0.51057788       1.43189371       0.52729251       4.32753334       0.19581913     -31.42893771       0.13282918      -0.78217626      -0.66215359
6
Properties=species:S:1:pos:R:3:momenta:R:3:forces:R:3 energy=-3149.24422670111 free_energy=-3149.24422670111 dipole="-0.0777073149690347 -0.0332007415954159 0.350274271845483" pbc="F F F"
C        0.78624424      -0.55193591       0.35162803      55.79484880     -53.80834687      70.57674014      -1.89623698       1.18142351       0.83051940
O        0.66473587       0.73532722      -0.35015100     -15.24171453     -53.30067554     -27.78938401      -0.66564764       0.45039490       1.16235559
H        1.10448665      -0.39660309       1.40314047       9.07544444      56.14374212       1.12228368       1.28095550      -0.13635781      -0.53109765
H       -0.21029117      -1.04735420       0.66147441       1.61116956       8.95689244     -10.61672632       0.64214288       0.40143221      -1.39623794
H        1.36971434      -1.12543332      -0.37559583      17.89944787     -11.84969199      -8.91502542       0.15618494      -0.44230345       0.71597088
H        0.32908858       1.46697736       0.26191391     -13.70334501      11.26276872     -21.79140188       0.48260129      -1.45458936      -0.78151027
6
Properties=species:S:1:pos:R:3:momenta:R:3:forces:R:3 energy=-3149.38205730165 free_energy=-3149.38205730165 dipole="-0.188031126078188 -0.0264971231136276 0.28580631349803" pbc="F F F"
C        0.90935608      -0.48180892       0.46792734      45.67810937     -62.01284212      87.09767726      -0.63600764       0.58954999      -0.02412392
O        0.64993789       0.60929127      -0.43227081     -16.52445020     -57.19587239     -28.65111191      -0.37532505       0.50393333      -0.20986363
H        1.22274261      -0.07817158       1.47673553      30.08881220      50.45097097     -12.36634372       0.83784270      -0.59222581      -0.87142192
H       -0.01680483      -1.01987592       0.75459881      10.81578108       6.45435297     -28.13928910       0.02239959      -0.27605361      -0.51893240
H        1.57284719      -1.12562056      -0.18815621      11.55095074      -0.36517829      17.27373858      -0.24594947       0.37169572       1.48916275
H       -0.04318469       1.22978995      -0.11041798     -26.25399396      20.13619388     -32.63246674       0.39703987      -0.59689962       0.13517913
6
Properties=species:S:1:pos:R:3:momenta:R:3:forces:R:3 energy=-3149.43413439935 free_energy=-3149.43413439935 dipole="-0.221482579246173 -0.0830683178672952 0.259073433651361" pbc="F F F"
C        1.02649311      -0.39579210       0.55918315      63.04831296       3.21884819      58.28708794      -1.30551860       1.35044702       0.37589026
O        0.63511161       0.47600702      -0.50233736     -37.77538593    -107.16944581       7.37453410       1.49297666       0.05594520      -1.01268610
H        1.30048860       0.23465753       1.46900414      34.70235175      34.44207118     -26.74062846       0.39867328      -1.00793323      -0.76700491
H        0.12901781      -0.95929267       0.81032343      -3.01243828      -2.19446263     -37.14116183      -0.04249768      -0.67330435       0.49877489
H        1.75313244      -1.05602715       0.10077234      10.47817366      15.99013901      38.26250954       0.67804418      -0.15987032       0.49275181
H       -0.23283867       0.82106593      -0.35841987     -11.91600121      13.05287478     -37.45431993      -1.22167784       0.43471568       0.41227406
6
Properties=species:S:1:pos:R:3:momenta:R:3:forces:R:3 energy=-3149.45260101725 free_energy=-3149.45260101725 dipole="-0.170338200843312 -0.035074190327349 0.309156131286956" pbc="F F F"
C        1.12458868      -0.29955096       0.64945117      46.46818671      74.57861256      36.82067405      -2.42674426       0.97782217      -0.78324965
O        0.62281237       0.31755160      -0.57837709     -64.46411250    -132.91037642      23.98066495       1.59564228      -0.40155521      -0.49074285
H        1.28884165       0.53499576       1.36742205      24.85841633       9.18689190     -28.20979874       0.07747744      -0.79653595       0.23243197
H        0.30546414      -1.02311311       0.91133168      -4.31563308      -0.04496732     -43.59677721       0.94505589       0.28191038       0.69478599
H        2.02185882      -0.81025555       0.37058873      38.40241881       3.64977087      41.58426521       0.80214797      -0.39794459      -0.01828878
H       -0.25699203       0.64433160      -0.43176641      14.89187965       2.63902903     -27.97705028      -0.99357933       0.33630320       0.36506333
6
Properties=species:S:1:pos:R:3:momenta:R:3:forces:R:3 energy=-3149.340471362 free_energy=-3149.340471362 dipole="-0.134391954976068 0.116403228373695 0.303002910582454" pbc="F F F"
C        1.18845688      -0.17650168       0.70272910      42.49533814      74.22732768      26.78158634       0.44317133      -0.53846178      -2.09520985
O        0.62757644       0.11972983      -0.61545585     -62.22641029    -123.14458714       7.41560946      -0.20750800      -0.01227334      -0.38547881
H        1.21226101       0.78133345       1.18814191      17.35329956      -2.08318993     -13.04175607      -0.32425959       0.22991633       1.43860719
H        0.62355426      -1.06850171       1.10778352       5.81084310      10.40646731     -31.25749637       0.71836122       1.01523647       0.38068524
H        2.29578036      -0.40097120       0.50234399      35.91711684      12.54756997      38.99308962      -1.38436099      -0.19994108       0.24806512
H       -0.21447747       0.63619124      -0.56192204      16.87863208     -15.15339127     -26.26921761       0.75459603      -0.49447660       0.41333112
6
Properties=species:S:1:pos:R:3:momenta:R:3:forces:R:3 energy=-3149.19116863167 free_energy=-3149.19116863167 dipole="-0.143185424889831 0.185905518037053 0.254579546682007" pbc="F F F"
C        1.23824957      -0.04724010       0.70723859      53.24730309      41.85485481     -10.55716634       1.76447020       0.49999381      -2.25191395
O        0.65894978      -0.07685753      -0.60733542      -9.28868214    -105.55842971      20.58964923      -1.25790896       0.07160132      -1.02652081
H        1.15835324       0.97856352       0.98749020      12.51464733       6.16322600      -8.29499867      -0.79774352       0.74450752       1.75198144
H        0.91583723      -0.91445083       1.28542225      16.81608555      21.23175155      -5.99050283      -0.05018594       0.33876216       0.67234783
H        2.37484671      -0.02380316       0.52563798     -11.08892321      15.88873443      32.28385833      -1.16990527      -0.87740993       0.20303167
H       -0.22224137       0.41130722      -0.67946832      -5.54050694     -23.11532649     -25.38850736       1.51127349      -0.77745488       0.65107383
6
Properties=species:S:1:pos:R:3:momenta:R:3:forces:R:3 energy=-3149.2803133515 free_energy=-3149.2803133515 dipole="-0.159954308251208 0.105938359261378 0.280066127838236" pbc="F F F"
C        1.28788056       0.09322135       0.68219655      38.68321045      14.07591983     -61.27065241      -0.48630580       0.58088489      -1.83008103
O        0.70854918      -0.25181182      -0.59014134      40.70811206     -66.44229254      44.45242923      -0.29885705      -0.38626464      -0.49688996
H        1.15112322       1.15906925       0.78447720       0.67495538       3.94138363     -14.14255460      -1.08255797       0.61892098       1.34082371
H        1.03850019      -0.65233594       1.40829521      19.28446097      28.73571829      32.57076943      -0.42428491       0.02056963       1.18959157
H        2.34600166       0.15269290       0.58142169     -21.55053627      11.03307920      19.81926564       1.41905890      -0.89005288      -0.53192991
H       -0.27774103      -0.18784959      -0.56385760     -20.99804677     -34.99350801     -18.78037994       0.87294684       0.05594202       0.32848562
6
Properties=species:S:1:pos:R:3:momenta:R:3:forces:R:3 energy=-3149.33128298599 free_energy=-3149.33128298599 dipole="-0.126117280996847 0.0265747330651308 0.343956926324559" pbc="F F F"
C        1.31843427       0.23529731       0.62095957      21.71922261      20.28607190     -94.77112525      -0.59612893      -0.91417859      -0.67527073
O        0.76054262      -0.42300907      -0.55495628      41.50908168     -78.14232940      31.76645655       1.89298464       0.91315710      -0.20696029
H        1.10512946       1.29397187       0.63100633     -26.41418468       4.34215783      -1.85800762      -1.13864442       0.56507831       0.50815721
H        1.06787549      -0.40727724       1.46092224       4.92661069      28.37787321      52.77411755      -0.38099164       0.57454931       0.80007398
H        2.38541195       0.29908968       0.64864296      24.11966280       8.34394139      15.93711032       1.30997755      -0.74840802      -0.78266361
H       -0.08001592      -0.77320289      -0.29325111      -8.72744348     -27.11044908      -1.18203428      -1.08719720      -0.39019812       0.35666344
6
Properties=species:S:1:pos:R:3:momenta:R:3:forces:R:3 energy=-3149.36924590668 free_energy=-3149.36924590668 dipole="-0.147525807889977 0.0517740824734478 0.31922871966365" pbc="F F F"
C        1.30468683       0.35087469       0.51617145      36.01394251      47.56549173    -113.53686506       1.82559669      -0.96340006       1.20353579
O        0.84926610      -0.59732481      -0.46654715      41.62958775    -135.48136133      38.42491653       1.68866378       1.47438084      -0.77349160
H        0.92943034       1.39149498       0.47149954     -47.89530773      15.56241895      22.11885140      -0.58694813      -0.44149241      -0.04879671
H        1.20905966      -0.16842189       1.50903575      -3.17225207      21.34394425      33.28335308      -0.43040805       0.94952183      -0.22925084
H        2.44520505       0.48840044       0.50668743      22.14740118      -1.88726898      11.57487457      -1.14575192      -0.41519517      -0.73990438
H        0.06748486      -0.99830988      -0.12845950       8.57712112       8.86880520      10.80931296      -1.35115238      -0.60381503       0.58790773
6
Properties=species:S:1:pos:R:3:momenta:R:3:forces:R:3 energy=-3149.3982179739 free_energy=-3149.3982179739 dipole="-0.226290794084702 0.120241777063724 0.180823689754516" pbc="F F F"
C        1.27991895       0.41240654       0.39944303      25.85576753      63.59858767    -125.77039046       1.84481567       1.42321686       1.43744149
O        0.96753594      -0.74619724      -0.33592074      66.14927645    -129.36183614      95.71010734      -0.53297847       0.01384841      -0.32566333
H        0.64323957       1.38491811       0.27775861     -43.00398546      12.04314419      35.03538909       0.62343936      -1.67959290      -0.05238582