6
Properties=species:S:1:pos:R:3:momenta:R:3:forces:R:3 energy=-3149.61926724651 free_energy=-3149.61926724651 dipole="0.143576784766878 0.192493196000681 -0.257991072003936" pbc="F F F"
C       -0.01172531       1.38805362      -0.00021131     -40.49735117      11.60766558      12.37236187       0.14439845       0.60010048      -0.24542766
O       -0.00854850      -0.02371002       0.02111594      -4.09323456     -67.64049316      83.32003521      -0.01488450      -0.50095620       0.02486209
H        1.01788575       1.78972600      -0.01097447      18.78979048     -14.73800388      12.47449526      -0.03320823       0.11993199       0.06960014
H       -0.53919912       1.77544284      -0.89082350     -12.49895625     -10.86325299       7.58360847      -0.04663326       0.11181457       0.06407207
H       -0.52147683       1.76374792       0.89725282     -13.18593902     -31.19169157     -15.03621277      -0.00745372      -0.15265156       0.01028219
H        0.45166264      -0.30133871      -0.78944300     -19.05167107      13.28028799     -25.83816526      -0.04221874      -0.17823929       0.07661117
6
Properties=species:S:1:pos:R:3:momenta:R:3:forces:R:3 energy=-3149.53876093644 free_energy=-3149.53876093644 dipole="-0.0924254014359069 0.187359602014911 -0.29829044452343" pbc="F F F"
C       -0.10337423       1.31560752       0.07493818     -33.22948294     -48.14839180      13.54411743       1.45816354      -0.05974104      -0.67818498
O        0.00430914      -0.10320851       0.07335836       8.71489528     -24.98074565      55.91366390      -0.04645232      -0.29745054       0.74907794
H        0.94905545       1.73412882       0.16047916       6.13448687     -23.16080993       6.68507452      -1.02553731       0.04952460       0.00922965
H       -0.57492582       1.67384567      -0.84453553     -14.14202551     -15.00492289       2.70222680       0.01862359       0.24534239      -0.19223828
H       -0.72606592       1.61237513       0.89611036     -20.06377236     -17.00717030       4.60909390      -0.32175450       0.36779384       0.82576852
H       -0.15663892      -0.41559413      -0.81414569     -22.79549179      21.92058636      -3.43482195      -0.08304300      -0.30546924      -0.71365285
6
Properties=species:S:1:pos:R:3:momenta:R:3:forces:R:3 energy=-3149.52418527196 free_energy=-3149.52418527196 dipole="-0.218594366654737 0.186465623489753 -0.232734008400325" pbc="F F F"
C       -0.19806212       1.24805825       0.15359849     -27.97316402     -61.64130550      15.40096086      -0.17625487      -1.06084846       0.34793881
O       -0.00024826      -0.19818944       0.11183862       7.63663436     -27.39671912      33.56151283       0.18466808       0.45416719       0.26833517
H        0.83385962       1.62727716       0.28918580     -16.48583431     -29.25788252       7.95225048      -0.58596107       0.46775086       0.06317810
H       -0.67441575       1.61973028      -0.76940844     -11.76860917      -7.78131262      -0.62799196       0.29732739       0.09044102       0.03781025
H       -0.89470695       1.47340140       1.00537715     -16.48368873     -10.44268666      13.69302139       0.65366217       0.17894269      -0.36444286
H       -0.53587500      -0.57371727      -0.59125341     -17.02697940      20.65505936      17.17547959      -0.37344171      -0.13045329      -0.35281946
6
Properties=species:S:1:pos:R:3:momenta:R:3:forces:R:3 energy=-3149.50820807493 free_energy=-3149.50820807493 dipole="-0.326825650707875 0.150882557546052 0.00176950665712365" pbc="F F F"
C       -0.29418138       1.15291211       0.24804207     -78.10281280     -32.10720633      20.84734821      -1.76793452      -1.68017652      -0.04626325
O       -0.01337973      -0.27868291       0.12063051      -3.12897259     -74.17487274       7.78514348      -0.75402582       0.08103371      -0.02635217
H        0.67508395       1.51239869       0.50898323      -8.88617817     -21.51827809      18.63847835       0.60847258       1.04371786       0.28245248
H       -0.70136319       1.54713632      -0.71013434      -1.44888866       5.20212514       6.49263176       0.42315164       0.13802256       0.27410704
H       -1.09773088       1.31631632       1.03746541       5.05129621      -8.34997155       1.13948396       1.00634996       0.13026795      -0.48170844
H       -0.87260685      -0.75215214       0.03997953       1.69337083      11.24309814      35.14504440       0.48398616       0.28713444      -0.00223565
6
Properties=species:S:1:pos:R:3:momenta:R:3:forces:R:3 energy=-3149.48882867053 free_energy=-3149.48882867053 dipole="-0.283304697072307 0.109134141972334 0.217561344776399" pbc="F F F"
C       -0.38329951       1.03548519       0.35096888    -111.51833316     -39.10330779      30.48871111       0.25734823      -0.83907847      -0.59456391
O       -0.07403690      -0.34918584       0.13047885     -13.59825502     -92.46737083      11.90438601      -0.59710841      -1.17063308       0.66610111
H        0.55702250       1.48523113       0.70734411       1.44189427      -4.25836266      15.29331052      -0.39897866       0.50168286      -0.05480428
H       -0.73569362       1.39345189      -0.61870856       7.47707291       7.19592574       9.46558552       0.27137096       0.72113604      -0.20905835
H       -1.22263006       1.15543788       1.02253389      18.98320276       1.84202339       4.23450702      -0.17351013       0.23702277       0.70631505
H       -0.70706146      -0.90727070       0.65041933       9.05211663       2.37103925      22.20894703       0.64087801       0.54986988      -0.51398961
6
Properties=species:S:1:pos:R:3:momenta:R:3:forces:R:3 energy=-3149.51167731179 free_energy=-3149.51167731179 dipole="-0.113575405302141 0.102081657484523 0.316362192025341" pbc="F F F"
C       -0.46997942       0.91590070       0.44786434     -49.23733465     -96.18134769      41.75933770       0.92215101      -0.16029231      -0.40100190
O       -0.15931635      -0.43457784       0.16583239     -59.31840213     -44.09240437      16.66254909       0.22296998      -1.29370425       0.73341850
H        0.40410465       1.46703722       0.88494636     -16.26308459       2.84489971       4.56653422      -0.56371660      -0.07210454      -0.29130432
H       -0.76569691       1.25945831      -0.52923904      15.78386513       3.82733424      -6.29378015       0.10281575       1.00603456      -0.53443263
H       -1.34186434       0.98861134       1.05682761     -10.05145306       9.79371108      23.00826906      -0.85372227       0.28211584       0.98384681
H       -0.24616824      -0.95190792       0.99828991      27.68423345      -5.18916744      17.33298160       0.16950214       0.23795070      -0.49052647
6
Properties=species:S:1:pos:R:3:momenta:R:3:forces:R:3 energy=-3149.55326284887 free_energy=-3149.55326284887 dipole="0.164767721564978 0.21450263893346 0.263282558517981" pbc="F F F"
C       -0.56557556       0.82366801       0.53561214     -18.61142189    -108.95580180      45.75415618      -1.16756808      -0.70306760      -0.45625820
O       -0.25203622      -0.56159587       0.23735844     -65.72622017     -37.34563231      52.13345874       0.00030685       0.57703697       0.03109020
H        0.21282197       1.32789114       1.11318702     -24.22744068      17.18861729      -0.99189608       0.19486553       0.14051039      -0.07333497
H       -0.73483055       1.29468350      -0.45444290      12.74916065       4.94740106      -8.52829184       0.10937880       0.21825960       0.47536631
H       -1.52538407       0.84223974       1.11744675     -22.14301164       1.18515300      23.12528890       0.48962240       0.23699629      -0.26335043
H        0.43690480      -0.79247660       0.86535362      25.65878443      -7.28340862     -13.50722967       0.37339449      -0.46973565       0.28648709
6
Properties=species:S:1:pos:R:3:momenta:R:3:forces:R:3 energy=-3149.49172261257 free_energy=-3149.49172261257 dipole="0.240036140330365 0.289856386763061 0.0939742965345462" pbc="F F F"
C       -0.66401251       0.71332551       0.61234349     -65.21120495     -81.63097294      43.50112535      -1.67720911      -0.42307520       0.31839500
O       -0.31604439      -0.67654147       0.33995949     -24.84521652     -86.09836876      58.38500799      -0.46435398       1.09021835       0.16939878
H        0.04875372       1.20880643       1.28676879     -11.58717442      26.33540585      10.73020202       0.18234149      -0.03696658      -0.10038176
H       -0.77551654       1.31047368      -0.33908347       9.69179221       6.17766532       9.98139067      -0.02867703      -0.41504773       0.71685742
H       -1.65071227       0.65972036       1.20061428      -0.62093341       3.07625425       5.83589873       1.01487851       0.33887199      -0.96587013
H        0.63532454      -0.64236727       0.41388392      -2.21323747      -1.62608198     -27.81162181       0.97302011      -0.55400083      -0.13839931
6
Properties=species:S:1:pos:R:3:momenta:R:3:forces:R:3 energy=-3149.52266526891 free_energy=-3149.52266526891 dipole="0.105698241346925 0.284791025660463 -0.193234934015905" pbc="F F F"
C       -0.76853641       0.57403455       0.69443614     -96.82969811     -60.85532380      50.54050461       0.08762533       1.02064048       1.26730385
O       -0.34343256      -0.75947335       0.46121205      24.67986109     -92.71274845      30.76824086       0.48393294       0.32655677      -0.60921676
H       -0.16639114       1.11678831       1.50169249     -12.11908892      15.29859374       4.78851200      -0.18825675      -0.57285188      -0.78874472
H       -0.77223454       1.23384238      -0.20486616       4.49130410       0.80381774      23.28953982      -0.15173887      -0.43055168       0.25935269
H       -1.76341501       0.48591091       1.13228406      13.82869543      15.17898201      -2.69117126      -0.44878944       0.24691016      -0.16397551
H        0.28602591      -0.64603565      -0.27072373     -29.10726514     -11.85656477      -5.78795689       0.21722680      -0.59070386       0.03528044
6
Properties=species:S:1:pos:R:3:momenta:R:3:forces:R:3 energy=-3149.46303788619 free_energy=-3149.46303788619 dipole="-0.0826456795439155 0.243277377086461 -0.270860461244402" pbc="F F F"
C       -0.88126463       0.44307992       0.78594318     -30.78746047     -88.80815944      52.87440117       0.64564390       1.15870869       1.75225473
O       -0.34987751      -0.83564262       0.54105256      -7.97122225     -34.23509233      28.72140992       0.56275321      -0.20721563      -1.58661494
H       -0.35176434       0.97000755       1.63243334     -21.24187785      -1.46846053     -14.99453257       0.11247127      -0.54059002      -0.51733827
H       -0.84977150       1.15773768      -0.03141207      -2.61251805      -0.87529466      23.86447707      -0.06415333      -0.00700185      -0.59360874
H       -1.87099217       0.33712268       1.17269579     -12.75760918       4.11088174       4.49011867      -1.36827014       0.04208953       0.05706092
H       -0.27846367      -0.86448077      -0.44589664     -21.75661251     -15.79469600       8.15106294       0.11155510      -0.44599072       0.88824630
6
Properties=species:S:1:pos:R:3:momenta:R:3:forces:R:3 energy=-3149.49752715435 free_energy=-3149.49752715435 dipole="-0.312324852311597 0.13253200993595 -0.130346604279357" pbc="F F F"
C       -0.99905023       0.32651483       0.89135336      15.26243559     -95.79779430      51.48313774      -0.84199126      -0.34949035       0.43510917
O       -0.34218887      -0.91029099       0.57938208     -40.31053803     -12.24194091      25.12176707      -0.95268561       0.21312127      -0.86639364
H       -0.57559413       0.75522701       1.76528098     -19.78619772       0.66128516      -4.28326769       0.98207552       0.15359699       1.22620143
H       -0.91354168       1.13786530       0.17062157     -11.30296107       7.63091658      15.55195408      -0.08194978      -0.06773973      -0.85791349
H       -2.05483528       0.16947053       1.20143439     -19.47342649     -13.85315760      -4.26991851       0.07341281       0.01574290      -0.48397326
H       -0.94400405      -1.30142361      -0.10657576     -21.78309347     -23.84944104      19.78772316       0.82113832       0.03476891       0.54696978
6
Properties=species:S:1:pos:R:3:momenta:R:3:forces:R:3 energy=-3149.46719646525 free_energy=-3149.46719646525 dipole="-0.360660347991972 0.0177437124606798 0.0978671744227566" pbc="F F F"
C       -1.11415602       0.19977924       1.01106392     -29.36740715     -65.08423475      43.06768968      -0.17239066       0.36347047       0.53620287
O       -0.38082915      -0.98581282       0.58363685     -40.50920562     -53.22741116      14.39076628      -0.76208487       0.92267060       0.24994013
H       -0.72439164       0.60511144       1.95049446       0.39345071       2.84358336      27.28098176       0.40257019      -0.39248938       0.47762139
H       -0.96688975       1.07001596       0.35125790     -19.92040693       8.99258393       5.24992387      -0.13560832      -0.44750322      -0.62789067
H       -2.20834710       0.07677188       1.23159086      -1.40618750     -14.04559592     -11.44600987       0.62563442      -0.31548231      -0.58541788
H       -1.02977188      -1.70610669       0.57922682      -7.91203837     -18.80306038      26.26070261       0.04187924      -0.13066615      -0.05045584
6
Properties=species:S:1:pos:R:3:momenta:R:3:forces:R:3 energy=-3149.50611295021 free_energy=-3149.50611295021 dipole="-0.183055446636397 -0.0207442492691092 0.278996718105993" pbc="F F F"
C       -1.21310711       0.04561046       1.12150967     -75.69239619     -22.72863882      57.99752062       1.30979779       1.76728438       1.22357906
O       -0.47538448      -1.05665967       0.60707764     -53.57569739     -96.68688005      13.45814377      -0.30596554       0.75798421      -0.48877979
H       -0.83118944       0.42577611       2.13730535       8.21551372     -19.87085987      19.85864102      -0.32168180      -0.82131959      -0.71970291
H       -0.97687237       0.93848718       0.50746376     -12.31577726       0.58194295       4.73567107      -0.16549479      -0.48783839      -0.31408765
H       -2.29828340      -0.01530616       1.21223691       2.17029553      -1.98904358     -13.81883975      -0.35361598      -0.59204166      -0.24649762
H       -0.60254004      -1.81256261       1.17838501      31.98614891       0.67604139      23.09565602      -0.16303967      -0.62406896       0.54548892
6
Properties=species:S:1:pos:R:3:momenta:R:3:forces:R:3 energy=-3149.50301289442 free_energy=-3149.50301289442 dipole="0.061313421228115 0.0884070150967813 0.327622375824906" pbc="F F F"
C       -1.29779671      -0.08421733       1.22113598     -61.29257236     -39.66685454      72.64994852       0.78342300       1.59366311       1.26142207
O       -0.58312746      -1.16319093       0.66972249     -42.47994500     -67.32339266      79.26081661      -0.35625236      -0.23069769      -0.80233431
H       -1.01729388       0.17196820       2.28696391       7.16818152     -33.65832958      -8.89496834      -0.25835926      -0.57085517      -0.61399188
H       -1.06890159       0.86507949       0.70309278      -4.65431508     -14.45219600      -7.71931683       0.16272252      -0.14083360      -0.34221939
H       -2.37663483      -0.17248443       1.16773342     -13.19984102       1.12745737      -9.65971501      -0.54389606      -0.59362768      -0.02293706
H        0.01539239      -1.55900956       1.30541089      14.82600551      13.36245676     -19.87108759       0.21236217      -0.05764897       0.52006057
6
Properties=species:S:1:pos:R:3:momenta:R:3:forces:R:3 energy=-3149.57494022235 free_energy=-3149.57494022235 dipole="0.157881513009993 0.262753446123785 0.162163389089252" pbc="F F F"
C       -1.38939837      -0.19578340       1.33228465     -66.26410915     -65.51890311      67.21347445      -0.47397866       0.14979845      -0.95609107
O       -0.66295742      -1.28971032       0.76395310     -29.13112111     -26.41687412     109.09806622       0.36936801      -0.06166523      -0.10232395
H       -1.22224931      -0.09655142       2.39113890       6.44777924     -36.80752501      -5.77676976      -0.01917981      -0.02012747       0.87525077
H       -1.18010262       0.78002079       0.86571378       9.23874116     -15.86014723     -16.15644227       0.38135482       0.04798695      -0.14320703
H       -2.47526294      -0.34423246       1.11658861     -10.14823217      -2.24006048     -11.81202155       0.57431029      -0.33950427       0.27618153
H        0.31088220      -1.19312611       0.90016308      -9.93794512       6.00224293     -36.63157661      -0.83187465       0.22351157       0.05018976
6
Properties=species:S:1:pos:R:3:momenta:R:3:forces:R:3 energy=-3149.50766296166 free_energy=-3149.50766296166 dipole="0.056846830813125 0.359818175125411 -0.0724495148759301" pbc="F F F"
C       -1.50677976      -0.31675754       1.43976096     -98.36054546     -39.15050946      42.57732943       0.50143530      -0.10987093      -1.56805618
O       -0.69453361      -1.39878135       0.87036085     -12.39937043     -30.31819955      74.12052814       0.15778364       0.48592049      -0.27383219
H       -1.38440235      -0.35128398       2.51873709       9.15154394     -36.33128177      17.92886864      -0.15163385       0.18092367       0.35138768
H       -1.22615146       0.67015547       1.01318671       8.21064731      -8.26047956     -11.01059997       0.19788232      -0.22107156       0.42048428
H       -2.56115537      -0.43593071       1.11529953       4.72215961     -11.08562176       2.29209904       0.20969588      -0.32548113       0.35934578
H        0.03008540      -1.05667057       0.28389824     -11.45683729     -16.17165552     -19.61170862      -0.91516329      -0.01042053       0.71067064
6
Properties=species:S:1:pos:R:3:momenta:R:3:forces:R:3 energy=-3149.52420979838 free_energy=-3149.52420979838 dipole="-0.167866212066847 0.250678451994312 -0.197253854102334" pbc="F F F"
C       -1.60639626      -0.46881748       1.53066512     -96.11208049     -13.24322519      66.61002475       1.05899558       0.14701010      -0.01873482
O       -0.71768522      -1.45654595       0.96738614      11.64187074     -36.97127091      44.04188177       0.02798714      -0.13265278      -0.17660847
H       -1.56376952      -0.62236944       2.66052942      -4.14821685     -28.68889455       9.35737027      -0.16133155       0.43136017      -1.33878069
H       -1.26605279       0.54112090       1.18349432       9.33856824     -13.81909984       3.22340464      -0.11730861      -0.22969470       0.78968759
H       -2.60655963      -0.57934668       1.12086413       0.36194718     -15.33298245       1.61675039      -0.67464744      -0.23024429       0.22580725
H       -0.65159892      -1.31372559      -0.00218711     -21.80508259     -34.09312253     -17.92647694      -0.13369511       0.01422150       0.51862914
6
Properties=species:S:1:pos:R:3:momenta:R:3:forces:R:3 energy=-3149.48982566562 free_energy=-3149.48982566562 dipole="-0.338619332812579 0.0262254732247466 -0.12879347218831" pbc="F F F"
C       -1.69270285      -0.62291695       1.64002012     -62.04298817     -50.58590547     103.31234361      -0.23865532       0.00489901      -0.72612676
O       -0.75582920      -1.48788222       1.01680527     -28.60996265     -14.92933102      12.27278282       1.14074896      -0.28993753       0.56150948
H       -1.77688569      -0.88522057       2.72135106      -8.13305382      -3.29609997     -16.08025177      -0.00748220       0.46163378      -0.47797450
H       -1.35508195       0.40692630       1.41015198      12.16061068     -26.62177754       1.09127896      -0.20134789       0.03104996       0.72212716
H       -2.65145462      -0.75207891       1.11252798      -7.74498900     -17.84976090      -2.60477927      -0.30745902       0.16010035       0.50831358
H       -1.16694138      -1.93325430       0.28117712      -6.50608353     -29.08602814       9.09828564      -0.38580452      -0.36774557      -0.58784896
6
Properties=species:S:1:pos:R:3:momenta:R:3:forces:R:3 energy=-3149.52316498484 free_energy=-3149.52316498484 dipole="-0.318673162826106 -0.117735418560744 0.118048312779021" pbc="F F F"
C       -1.79412959      -0.76572565       1.75171498     -26.81698012     -94.51718136      64.67174038      -0.41337292      -0.78259256      -2.24419881
O       -0.81835678      -1.53956309       1.03751785     -96.61999911      -9.32653162       5.49308882       0.62215056       0.44506986      -0.01818762
H       -1.90270050      -1.15695234       2.73489041     -20.77400260       3.47522723      -3.22475085      -0.24567775       0.00451180       1.36017791
H       -1.42348853       0.24400803       1.68266698      13.70012028     -19.96160935       6.00180620      -0.05105910       0.66983400       0.39522396
H       -2.75726726      -0.86317792       1.18039808      10.27376925     -15.98420818       1.09111546       0.24937531       0.42618821       0.62555165
H       -1.18341579      -2.41854536       0.94021083      18.85155711      -6.77839275      33.60380108      -0.16141610      -0.76301131      -0.11856708
6
Properties=species:S:1:pos:R:3:momenta:R:3:forces:R:3 energy=-3149.49259439947 free_energy=-3149.49259439947 dipole="-0.162983853586211 -0.103297956345423 0.34790835632039" pbc="F F F"
C       -1.89782200      -0.89328833       1.85524925     -31.26390525     -70.18748657      29.02637414       0.98808747      -1.06239320      -1.08018859
O       -0.90975965      -1.63392149       1.05668964     -73.64068517     -64.80910262      21.91104519      -0.25506344      -0.01533750       0.39350696
H       -2.00897941      -1.43898659       2.77386823     -22.62498148     -10.00070706      25.68325745      -0.20484573       0.12043145       1.01931774
H       -1.49023253       0.10601638       1.98373794       0.72367691       0.78379613      13.56300907      -0.28613935       0.39841791       0.20614538
H       -2.85136275      -0.94294113       1.33335036      17.83528377     -21.16294082       7.79165152      -0.36204190       0.44247447      -0.18863398
H       -0.73975673      -2.44316192       1.57369043       7.37871453      21.99888396       9.87847971       0.12000295       0.11640686      -0.35014751
6
Properties=species:S:1:pos:R:3:momenta:R:3:forces:R:3 energy=-3149.49943713364 free_energy=-3149.49943713364 dipole="0.0175792122718763 0.0440557283350225 0.362670811465791" pbc="F F F"
C       -1.97577335      -1.03762196       1.94899914     -18.56363204     -51.10857086      44.85317528       1.60118485      -1.30827747       1.11712248
O       -1.02359848      -1.74502972       1.12099820     -48.03365787    -109.63586157       5.98188387       0.76752529      -0.38614523       0.67979930
H       -2.14302028      -1.66029391       2.88033729     -13.47189360     -10.26998269      16.74932287       0.00511703       0.83221573      -0.42777365
H       -1.54962861      -0.04431627       2.18416952      -9.28222544       1.39317767      27.68785864      -0.65345718       0.00696638       0.09110109
H       -2.89043354      -1.06200181       1.40934388     -11.81595611      -9.77612941       1.87724407      -1.04273093       0.54644889      -0.61912707
H       -0.30472717      -2.04419945       1.74225880      -1.14849775      35.00489138      11.47092319      -0.67763906       0.30879171      -0.84112215
6
Properties=species:S:1:pos:R:3:momenta:R:3:forces:R:3 energy=-3149.50525345881 free_energy=-3149.50525345881 dipole="0.106840192826248 0.267119239828635 0.204763154547213" pbc="F F F"
C       -2.05034375      -1.19325528       2.04452101      -1.82941271     -71.63199080      36.88413802      -0.74130572      -0.54876060       0.26516746
O       -1.11045125      -1.86349425       1.22493820     -49.20792671    -113.32950302      38.24395568       1.30788581      -0.06708687      -0.26652464
H       -2.33154019      -1.82838956       2.93997508      -0.63390514       5.93068252      -0.39944462       0.29401935       0.52593302      -0.47983727
H       -1.62149009      -0.23245851       2.39083729     -19.02862146      -0.17140482      26.91297775      -0.67604088      -0.02272562      -0.09169618
H       -2.97776860      -1.12396137       1.40955262     -22.42361748       1.40527483       2.81368903       0.52912816       0.53288787       0.65059931
H       -0.22065121      -1.46281575       1.37436936      -9.01971104      33.64984707       3.97882905      -0.71368672      -0.42024780      -0.07770868
6
Properties=species:S:1:pos:R:3:momenta:R:3:forces:R:3 energy=-3149.53545183204 free_energy=-3149.53545183204 dipole="0.00962805779696459 0.34127069985168 0.0814536691832516" pbc="F F F"
C       -2.14802806      -1.33764384       2.14515724      17.31048549     -98.99422948       1.01451020      -0.38167641       0.42962511      -0.83594614
O       -1.15825984      -1.96515643       1.32196150     -70.34491341     -86.32894410      85.97009165       0.10244277      -0.43416585       0.22324835
H       -2.39287627      -1.99735364       2.97433508      -0.95103409       7.40474109      -3.18313315       0.00224763      -0.35152960       0.27286130
H       -1.76406050      -0.38436304       2.58775055     -31.49798027       0.55850379      21.39930562      -0.52607931      -0.30756853      -0.38813056
H       -3.08966840      -1.23161053       1.51272380       4.90539548       5.01951203      14.29263527       0.73370498       0.42904924       0.79750455
H       -0.53293223      -1.30019864       1.00874858     -23.17415080      25.91963475      -9.35276367       0.06936034       0.23458964      -0.06953750
6
Properties=species:S:1:pos:R:3:momenta:R:3:forces:R:3 energy=-3149.58139281505 free_energy=-3149.58139281505 dipole="-0.231370332992851 0.262243557462943 -0.0906976572959582" pbc="F F F"
C       -2.25688040      -1.48560832       2.24099062       0.43041262     -79.38908004      -0.02874196       1.16278569       0.19779551       0.24355337
O       -1.17884772      -2.03666896       1.42205939     -24.67461886     -50.61209751      64.58736336      -0.70731492      -0.21153716       1.19579333
H       -2.50641671      -2.23866691       2.98961279      -8.76939930     -10.85767725       9.85281396      -0.04289228      -0.31685986       0.03298270
H       -1.90854464      -0.59012707       2.82906243     -42.02202099      -1.60629079      15.82546623      -0.25134799      -0.34083535      -0.58307453
H       -3.15645589      -1.25973002       1.66663646      13.36626816       9.94308361      21.57172822      -0.16022113       0.15536136      -0.19718861
H       -1.15561325      -1.55565891       0.59715398     -41.77676967     -13.46583990      -1.99453978      -0.00100937       0.51607549      -0.69206626
6
Properties=species:S:1:pos:R:3:momenta:R:3:forces:R:3 energy=-3149.51305076853 free_energy=-3149.51305076853 dipole="-0.329253085194575 0.0767466704313072 -0.132035493270324" pbc="F F F"
C       -2.34797116      -1.65912204       2.33159203     -36.99355438     -82.87298385      31.64582178       1.08783455      -0.18632569       1.41968085
O       -1.23249032      -2.06842484       1.50155504      -4.10533636     -44.52495654      20.27366194      -0.49808943       0.17881846       0.47064520
H       -2.60158665      -2.45017474       3.08997045       1.00682023      -8.55226111       4.48609733       0.04442724       0.17052073      -0.74869279
H       -2.00959894      -0.80909271       2.95841704     -33.41332365      -5.19917310       7.98584486       0.08870472      -0.05090697      -0.21980989
H       -3.24587139      -1.30982192       1.84801970     -14.70763164      17.97244930      24.62351963      -0.46238359      -0.09353339      -0.75764019
H       -1.50848555      -2.13810539       0.57864789     -16.03479417     -23.94215742      21.65239063      -0.26049349      -0.01857315      -0.16418319
6
Properties=species:S:1:pos:R:3:momenta:R:3:forces:R:3 energy=-3149.52729391176 free_energy=-3149.52729391176 dipole="-0.268066207823639 -0.18189484603368 -0.00914845443454902" pbc="F F F"
C       -2.40752811      -1.83621426       2.42644322     -60.46619875     -96.49344248      34.11400253      -1.33215428       1.07152701       0.62517303
O       -1.32924591      -2.09144823       1.56221286     -41.47901060     -43.79009799      17.09923091      -0.01402637      -0.84436755      -0.69721374
H       -2.72367316      -2.66082771       3.10020871       7.85189665      -0.50915577      -5.64374352       0.07808158      -0.15398297      -0.50393138
H       -2.11265927      -1.03931626       3.11411036      -8.24966602      -6.46512835       4.19229247       0.54333037       0.12808447       0.15570412
H       -3.31925362      -1.34551952       1.95373354     -19.74257980      18.24776867      31.60569704       0.58858730      -0.86328988      -0.08729191
H       -1.56229030      -2.85214294       0.97176144      17.73293133     -18.26213431      29.41551672       0.13618142       0.66202893       0.50755987
6
Properties=species:S:1:pos:R:3:momenta:R:3:forces:R:3 energy=-3149.43002328615 free_energy=-3149.43002328615 dipole="-0.143463051111386 -0.286203900065195 0.181739079765981" pbc="F F F"
C       -2.47359978      -1.98640351       2.55086685     -46.89765743     -89.50602521      14.95563153      -1.71043606       1.96478173      -0.61114459
O       -1.44201213      -2.15789199       1.58917282     -85.13523632     -48.12276510      59.96663537       0.41331112      -1.10847904       0.33566671
H       -2.80771281      -2.87092444       3.06429857      -1.14685575      -3.30486494       2.05525578      -0.13524200      -0.81195751       0.09261689