6
Properties=species:S:1:pos:R:3:momenta:R:3:forces:R:3 energy=-3148.36633332062 free_energy=-3148.36633332062 dipole="0.190772962936344 0.173303608406235 -0.21345159630674" pbc="F F F"
C        0.01173303       1.39963377       0.00597538    -182.43175736     -63.55219579      62.74059690     -11.73671493      -3.32714687      -2.34323782
O       -0.00905610      -0.03064991       0.02188513      -9.12744150    -104.48394998       4.48713026       0.03633376       0.18454505       0.01517106
H        0.84662197       1.75471540       0.00834029     -16.50951757     -22.82870173     -37.87885257      10.20185237       4.19532434      -0.22024438
H       -0.63433489       1.86334461      -1.01944040      -2.09753223     -36.97725221       4.08229053       1.62731960      -1.05516539       2.67878838
H       -0.51917227       1.72819496       0.90896820       3.48433491     -20.71136990      22.06781990      -0.17601205      -0.00340858      -0.13637348
H        0.44429223      -0.34651208      -0.77778323      39.73995117      -0.44245027      16.71341676       0.04722126       0.00585145       0.00589624
6
Properties=species:S:1:pos:R:3:momenta:R:3:forces:R:3 energy=-3148.51663690747 free_energy=-3148.51663690747 dipole="0.281075681375415 0.261004177643169 -0.0522797936858265" pbc="F F F"
C       -0.28386958       1.20985818       0.04925865    -211.60665412     -51.02087807      50.84934117     -10.28291988      -6.27381866       1.99871884
O       -0.00373823      -0.21789761       0.04023054      13.82956120    -101.12813190      -1.23504872      -0.26450130       0.28420831      -0.28526135
H        0.43275971       1.72203486      -0.18540688     -11.99768093     -12.22055365     -28.23419938       8.25833743       5.89471255      -2.85023627
H       -1.24543044       1.44464706      -0.68692850      38.52792547     -47.57683891      20.87971352       2.26118071      -0.54160609       1.65628407
H       -0.59119047       1.40197426       1.09748053       7.95176195     -25.39107666       5.76025684      -0.10725628       0.45613615      -0.39754845
H        0.93051468      -0.37407594      -0.16070894       3.54794158      -0.92658948      21.08066182       0.13515932       0.18036774      -0.12195683
6
Properties=species:S:1:pos:R:3:momenta:R:3:forces:R:3 energy=-3149.03819209024 free_energy=-3149.03819209024 dipole="0.146532890631371 0.305362113049572 0.143867098642267" pbc="F F F"
C       -0.57135670       0.96681019       0.10667293    -260.47195597     -83.10042667      58.72222413      -2.28144515      -5.09915842       4.86775590
O        0.01997238      -0.34327747       0.04503681      31.44336795     -80.92622627       7.33852003       0.00358502      -0.80752951      -0.52648096
H       -0.02173795       1.57441535      -0.37684390       8.00929863      21.20968351     -44.39803874       4.04667102       5.07176649      -3.49877573
H       -1.53113135       0.88980882      -0.33388100      64.85464530     -40.59891648      27.56488514      -1.29236346      -0.08159675      -0.39186045
H       -0.62570034       1.16547323       1.19810236      21.84060233     -35.34659339     -10.76879072      -0.42295181       0.78388794      -0.42679228
H        0.88278240      -0.32357500       0.49138502     -17.96855164      -8.38391280      27.41649761      -0.05349562       0.13263025      -0.02384648
6
Properties=species:S:1:pos:R:3:momenta:R:3:forces:R:3 energy=-3148.91813734601 free_energy=-3148.91813734601 dipole="-0.0524350424729839 0.204292020697939 0.295486244918661" pbc="F F F"
C       -0.84198792       0.70744502       0.18022464    -187.47312658    -120.02179590     121.05065756       5.25952769      -0.91099375       2.18771612
O        0.05579559      -0.41999322       0.05986430      16.95153406     -29.06523179      26.06461246       0.65490395      -1.37681345      -0.17613007
H       -0.46257426       1.30142176      -0.57111038      19.89253967      19.17726857     -66.35896903       0.42082905       2.53538157      -1.46900054
H       -1.72270775       0.35923544      -0.04536655      -1.61618030     -46.75607335      -5.55273566      -5.50514144      -1.59162580      -0.95439516
H       -0.69225624       1.01920039       1.19583437      21.57384707     -31.94884466     -20.44684050      -0.60930871       1.18602266       0.50510465
H        0.53887075      -0.58265778       0.88766988     -15.39333732      -9.24392895       8.42036747      -0.22081053       0.15802877      -0.09329500
6
Properties=species:S:1:pos:R:3:momenta:R:3:forces:R:3 energy=-3148.85341699396 free_energy=-3148.85341699396 dipole="-0.213315739294706 0.0215196458964402 0.296817036686159" pbc="F F F"
C       -1.07303192       0.44741245       0.25563509    -103.20799793    -106.19033463      91.43638364       3.22277935      -1.32369880      -4.22299464
O        0.07135955      -0.46675368       0.10050085     -11.77107450       8.09456910      43.32982420       0.87273414      -0.89149741       0.32453516
H       -0.89738993       0.90947355      -0.81396354       1.83395495     -11.03842526     -51.56545016      -1.08080580       0.45108434       2.33844647
H       -1.87201943      -0.22603979       0.19765704     -34.41673709     -68.83124807      -4.12853433      -2.24619695      -0.31895860       0.43291704
H       -0.80633290       0.91284143       1.15000504      14.85404729      -4.89711819      -8.76744460      -0.69769278       1.95930338       1.38863662
H        0.17935594      -0.97372891       0.93124146      -8.16361323     -27.25305942      -9.37473051      -0.07081796       0.12376709      -0.26154065
6
Properties=species:S:1:pos:R:3:momenta:R:3:forces:R:3 energy=-3148.57504553871 free_energy=-3148.57504553871 dipole="-0.295522484505616 -0.157788632247139 0.149441230295003" pbc="F F F"
C       -1.26679121       0.18458023       0.29249564     -93.68141659    -118.73325918     -15.45448416       1.14586528      -4.59409344      -3.84106108
O        0.05538187      -0.49643737       0.18032434     -23.77621117     -27.05577627      52.27163650       0.97302609      -0.16035198      -0.19309130
H       -1.40800132       0.38915575      -0.88587783     -12.41242912     -15.23191447      30.94371119      -0.42060073       0.83270806       2.87523893
H       -1.86028831      -0.77602873       0.49526338     -11.31966018     -42.49932025       9.73875558      -0.58360241       2.12897032       0.35841006
H       -0.99375524       0.84530445       1.06683049      -5.26650122      10.94635190      -2.83091154      -1.17862021       1.75480588       0.77065964
H       -0.02189164      -1.37853270       0.57475373       8.53560941     -13.13813734     -15.01181939       0.06393198       0.03796116       0.02984377
6
Properties=species:S:1:pos:R:3:momenta:R:3:forces:R:3 energy=-3149.03142683377 free_energy=-3149.03142683377 dipole="-0.259751559905977 -0.231836605961852 -0.0315088017771739" pbc="F F F"
C       -1.41255594      -0.12238017       0.31542851     -71.18809307    -200.33464903     -58.73235168       1.57785159      -3.38384724       0.21472798
O       -0.01811791      -0.52110342       0.26427741     -34.57979287     -39.19356353      72.83622345       1.37920521      -0.02992728      -0.20645785
H       -1.71969685      -0.10496460      -0.73444437     -18.91850173      -0.93853361      77.42231017      -0.75441110       1.04220001       0.06856669
H       -1.85648310      -1.08506364       0.76300784      18.88341479      19.39484933      -0.15878041      -0.62889880       1.91157017       0.08172737
H       -1.23603931       0.74407880       0.94404814     -35.08511798      18.21633599      -6.28122861      -1.56807085       0.60011528      -0.02461462
H        0.04417333      -1.47772118       0.13786195       5.21650877       0.50160417     -26.40230093      -0.00567604      -0.14011093      -0.13394957
6
Properties=species:S:1:pos:R:3:momenta:R:3:forces:R:3 energy=-3149.04793653587 free_energy=-3149.04793653587 dipole="-0.236854014064508 -0.159974752325353 -0.257401885145034" pbc="F F F"
C       -1.54097240      -0.43726455       0.36646312       2.86821755    -210.68481071      -3.65461664       3.70122412       2.20596395       3.42719580
O       -0.10310725      -0.57076090       0.33900490     -70.01433727     -54.12484707      54.17665071       0.88973469      -0.26261974       0.02004087
H       -1.86665828      -0.63797795      -0.53505132     -39.48454430      15.72772903      38.09575494      -2.30982476      -0.35640451      -5.00405221
H       -1.91338592      -1.18964092       0.99494751      23.19567522      34.45921305     -10.43104886      -1.05683938      -0.82104658       1.66175097
H       -1.57971046       0.62220325       0.70326626     -55.97804087      -1.63704017     -14.38559359      -1.23570891      -0.62111475      -0.06158600
H        0.15379546      -1.12548936      -0.41212026       6.84689861      18.53859344      -6.46069525       0.01141424      -0.14477837      -0.04334943
6
Properties=species:S:1:pos:R:3:momenta:R:3:forces:R:3 energy=-3149.17616428145 free_energy=-3149.17616428145 dipole="-0.253076423745757 -0.0687420388233572 -0.306155558598248" pbc="F F F"
C       -1.64665285      -0.73239014       0.42292065      63.98537791    -133.96024011      59.80819425       3.20637015       4.19978515      -0.32166826
O       -0.18987386      -0.62335288       0.38994977     -70.54010329     -42.35798670      30.54288023      -0.12735963      -0.50837174      -0.01688113
H       -1.98019317      -1.08853536      -0.45705189     -52.95179877      -8.21017633     -57.14777025      -1.40583108      -1.35297435      -3.41060129
H       -1.94374670      -1.35144839       1.15047479     -15.32815098      -3.95082028      39.79552134      -1.08557444      -2.30197863       3.28845357
H       -1.97666823       0.30593434       0.53320100     -54.43559103     -25.71794318     -19.15884517      -0.68797983      -0.05573876       0.31638202
H        0.06461188      -0.71750260      -0.54400544      -2.05230285      18.33023288       2.96147066       0.10037484       0.01927834       0.14431509
6
Properties=species:S:1:pos:R:3:momenta:R:3:forces:R:3 energy=-3149.5552166032 free_energy=-3149.5552166032 dipole="-0.23666557052479 0.131366919162493 -0.240975014749649" pbc="F F F"
C       -1.70506440      -1.00489888       0.46212780      49.41036391    -104.13340716      71.75015106      -0.39087456      -0.55366620       0.11325827
O       -0.31001809      -0.69117137       0.42490264     -35.39995744     -37.53380551       4.91575787      -0.03970509      -0.09310770      -0.14872536
H       -2.06687066      -1.61985313      -0.40404836     -42.76139710     -39.13474545     -77.73992785       0.47905863      -0.20190921       0.52539370
H       -1.94612347      -1.50454323       1.45142585     -35.84668684     -14.72681604      68.80506238       0.37876512       0.35915503      -1.04137182
H       -2.31053269      -0.11069999       0.37463240     -41.18662138     -22.52323418     -24.56547098      -0.36062696       0.69207972       0.30696829
H       -0.15112743      -0.12788546      -0.35914917     -23.99884536      24.48339045      12.97067642      -0.06661714      -0.20255164       0.24447691
6
Properties=species:S:1:pos:R:3:momenta:R:3:forces:R:3 energy=-3149.0892194806 free_energy=-3149.0892194806 dipole="-0.235605930727255 0.254135238775766 -0.0925921736952994" pbc="F F F"
C       -1.74982005      -1.26674919       0.51209595      30.16320989     -89.11078284      98.41850694      -2.20493204      -1.81106221       0.56772249
O       -0.44820476      -0.74586951       0.43174361     -67.70041534     -32.77424796      -3.15822180       0.34015140       0.02459063      -0.26603303
H       -1.98562070      -2.15391329      -0.28975891     -16.09215828     -57.92671016     -57.96418643       1.05827846       1.34883422       1.95599761
H       -1.94002598      -1.60953539       1.67397711     -17.45244750      -1.84337118      17.72243969       0.22390879       0.42114772      -2.77697953
H       -2.60936391      -0.59680214       0.21207327     -34.97541822     -17.26650331     -14.99292090       0.88998495       0.15808553       0.54095796
H       -0.43078200       0.18614150       0.15449654     -22.78272780       6.75378932      15.70387936      -0.30739155      -0.14159590      -0.02166550
6
Properties=species:S:1:pos:R:3:momenta:R:3:forces:R:3 energy=-3148.84724037402 free_energy=-3148.84724037402 dipole="-0.260656628721246 0.199810231200996 0.0943565875238632" pbc="F F F"
C       -1.79177332      -1.52211835       0.57601661       2.24661887     -74.09974035      75.69697551      -2.19064025      -2.40971276      -0.91347149
O       -0.59796766      -0.78422373       0.43540692    -126.40734881     -46.99117455      -4.55266136       0.04133953      -0.35440649      -0.61138813
H       -1.77719369      -2.62156352      -0.13708703      13.83913707     -41.83453650     -12.41320372       0.62779046       2.84973674       2.39311143
H       -2.00494892      -1.70998975       1.71204371       1.62331216       5.87934947     -32.97837189       0.14520343      -0.18416347      -1.85210802
H       -2.77835269      -1.11404691       0.07664923      -9.13395689     -27.10781430       1.25694613       1.66917578       0.12597353       0.92380234
H       -0.72803315       0.15061039       0.66348581     -10.53688742      -7.31981372      28.51961708      -0.29286895      -0.02742755       0.06005387
6
Properties=species:S:1:pos:R:3:momenta:R:3:forces:R:3 energy=-3148.84291680317 free_energy=-3148.84291680317 dipole="-0.223533579654985 0.0569090306372293 0.291912602841704" pbc="F F F"
C       -1.81737634      -1.78457476       0.64080576     -32.13370632    -130.08305063       5.54501532      -0.08011982      -2.32928376      -3.89659653
O       -0.78397956      -0.80435205       0.43647080    -133.99775886     -35.06350487      16.58284175      -0.32364999      -0.87268078      -0.51562490
H       -1.52088953      -2.97319413       0.12589564      17.79711361       8.93399890      27.09490812      -0.12993223       3.29726824       1.94225274
H       -2.12623803      -1.82101827       1.64873862       7.47449282      -4.33844142     -32.60285389      -0.31352542      -0.52538918       1.45663074
H       -2.75308341      -1.64157682      -0.02224639      16.25058236     -13.72143109      26.26913971       1.06017879       0.52469361       0.82787206
H       -0.80422274      -0.14575562       1.14655772      -3.56558371     -16.91335475      12.55764854      -0.21295134      -0.09460813       0.18546590
6
Properties=species:S:1:pos:R:3:momenta:R:3:forces:R:3 energy=-3149.15914605459 free_energy=-3149.15914605459 dipole="-0.141322639908273 -0.0449031955756582 0.319936972657694" pbc="F F F"
C       -1.80977060      -2.02784809       0.68649411       7.63645675    -202.81377913     -62.87878394       2.14240415      -1.92208304      -1.53224596
O       -1.00649773      -0.85720987       0.46488867    -142.25854045     -25.95404897      17.33996130      -0.05622296      -0.41102060      -0.33985101
H       -1.25395048      -3.11028320       0.35074394       6.20957462      47.17171159      49.96525256      -0.81707700       2.67582509       1.36973451
H       -2.25228943      -2.04965825       1.65391790     -14.63495523     -15.39396528      20.24497280      -0.14106906      -0.35713127       1.20950964
H       -2.60965491      -2.03854609      -0.01646641      13.29690712      19.85814390      29.53702617      -1.01445364       0.38233057      -0.86158021
H       -0.81968726      -0.37718432       1.28757953       1.10384673     -14.75486682       1.44438037      -0.11358149      -0.36792075       0.15443303
6
Properties=species:S:1:pos:R:3:momenta:R:3:forces:R:3 energy=-3149.50992639961 free_energy=-3149.50992639961 dipole="0.0930605160251716 -0.176457225562612 0.245916443186836" pbc="F F F"
C       -1.77989718      -2.23944164       0.71966174      94.12190536    -205.59307961       1.61531291       0.25541386      -0.89659886       1.26689467
O       -1.25709354      -0.93746787       0.51424874    -168.06116928     -56.96198877      39.51810276       0.45560790       0.21243604       0.10557460
H       -0.98458419      -3.09400207       0.68206127     -26.08377190      67.28095167      53.88331559      -1.06912134       1.25618170       0.31454795
H       -2.43334211      -2.28270592       1.66930442     -12.68388885     -24.88571109       9.29953419       1.00479226      -0.22070772      -0.88719024
H       -2.45851715      -2.40764434      -0.09837055     -28.06880296      33.60555698     -27.70121948      -0.42552231      -0.19324124      -0.64365603
H       -0.60939647      -0.72719578       1.21614701      13.34405761      -3.51636247     -21.49226277      -0.22117037      -0.15806991      -0.15617095
6
Properties=species:S:1:pos:R:3:momenta:R:3:forces:R:3 energy=-3149.33701662249 free_energy=-3149.33701662249 dipole="0.276214531990411 -0.239887239836839 0.112434349727402" pbc="F F F"
C       -1.74974500      -2.43687320       0.74886810      71.04118869    -149.38135338      22.06130959      -4.19306364       0.72246199      -0.86299959
O       -1.49492346      -1.03595532       0.59545890    -146.78794390    -112.31108380      38.79199951       0.49736476      -0.03282472      -0.02595665
H       -0.87983534      -2.94159650       0.98184077     -41.75624728      54.92543812      47.06425133       2.00737217      -1.54495661       0.29573642
H       -2.49330675      -2.57451110       1.61999866      23.09362511     -17.59345869     -10.31642393       0.82243798       0.00577022      -1.00943535
H       -2.29603371      -2.85692688      -0.22365558     -27.88988046      24.83665180     -25.88990433       1.22970065       0.66496515       1.73904037
H       -0.54956623      -0.91900762       0.81587518      -4.52429771      10.36441353     -16.85257094      -0.36381191       0.18458397      -0.13638521
6
Properties=species:S:1:pos:R:3:momenta:R:3:forces:R:3 energy=-3149.25567412126 free_energy=-3149.25567412126 dipole="0.276632599141063 -0.22316704483011 -0.0437179388864188" pbc="F F F"
C       -1.72037300      -2.61472312       0.78309577     -29.72415114    -130.54491334     -46.13643184      -2.23519107       1.02377763      -2.74258146
O       -1.71639731      -1.16813445       0.67879185    -116.11779658    -116.72409005      58.92655142       0.05149390      -0.25571367      -0.14234360
H       -0.83579388      -2.86980440       1.26868625       6.88793394      42.94557543      67.73802468       2.09171568      -1.33125013       0.19868090
H       -2.48252039      -2.85838056       1.49041299      35.89071823     -11.11284668      -6.36084208      -1.03653156      -0.22795316       0.54324854
H       -2.05417487      -3.10132748      -0.27148905      -6.48269130      25.74309539       4.71327017       1.26584881       0.61340927       2.17782400
H       -0.83200094      -0.94531397       0.33892397     -17.22409733       0.61193670     -24.04400179      -0.13733577       0.17773006      -0.03482838
6
Properties=species:S:1:pos:R:3:momenta:R:3:forces:R:3 energy=-3149.2335169636 free_energy=-3149.2335169636 dipole="0.129893820906115 -0.199772469654126 -0.248658283104118" pbc="F F F"
C       -1.68670213      -2.76087964       0.81857503      -3.75570097    -115.21534262    -113.72208261       0.51144960       1.22079139       0.49778505
O       -1.91220445      -1.32704509       0.75149875    -104.83919898     -96.67122791      55.65069905      -0.28733835      -0.06862505       0.23304998
H       -0.83369863      -2.89796753       1.60291883       7.85444285      34.00950075      51.61688255      -0.50170197      -0.47212183      -2.01629150
H       -2.52914489      -3.17401780       1.34764497      -5.72388732     -26.28759127      23.81449056      -0.84239515      -0.33726954       0.15924322
H       -1.73983234      -3.12217400      -0.25364770       5.64212444      23.94597819      45.67144416       0.96133527      -0.44242084       1.26744563
H       -1.54469291      -1.01453792      -0.08480351     -25.76832900      -8.59424473      -8.27071094       0.15865061       0.09964586      -0.14123237
6
Properties=species:S:1:pos:R:3:momenta:R:3:forces:R:3 energy=-3148.90704892978 free_energy=-3148.90704892978 dipole="0.051408755306565 -0.189557550135653 -0.307430726135482" pbc="F F F"
C       -1.65225869      -2.86919766       0.84766324      31.27469413     -81.09902737     -24.83431762      -1.65418307       0.93945743       6.32865262
O       -2.10997972      -1.50640014       0.80312339    -118.57933697    -112.99122721      38.74010451      -0.01920892       0.40534449       0.26074952
H       -0.87075785      -2.91207433       1.79605014     -14.04341043      20.66636092       0.80942718      -1.04373640      -0.23476698      -2.90160153
H       -2.53317754      -3.49783353       1.26815788      -3.96545242     -17.95944661       0.48365792       1.06980190       0.48429275      -0.74195205
H       -1.49556390      -3.11448139      -0.12146732      -0.71133472      18.78375890      37.29846869       1.68901792      -1.72574290      -2.85859851
H       -2.17931116      -1.26035091      -0.12966294     -21.74557991     -17.97286826       2.77208094      -0.04169143       0.13141521      -0.08725005
6
Properties=species:S:1:pos:R:3:momenta:R:3:forces:R:3 energy=-3149.20340968514 free_energy=-3149.20340968514 dipole="-0.0624873060906992 -0.26024967297891 -0.231155817583092" pbc="F F F"
C       -1.62979954      -2.96854913       0.89296780       6.22740755     -48.60786600     131.66223841      -3.43871868       0.45331906       3.99023561
O       -2.29083153      -1.69054430       0.84183110    -107.01691646    -129.90962718       7.72337710      -0.40932504       0.64862810       0.01183516
H       -1.07942306      -2.87774113       1.87482181     -32.15309770       0.32927073     -56.11330608       0.50549135      -0.45261113      -1.43781273
H       -2.43102774      -3.76451864       1.11467777      16.55643513      11.24211445     -28.25943761       0.97236117       0.47236817      -0.44026666
H       -1.23817180      -3.09674489      -0.04067678      11.91474453       8.75907975     -19.92241267       2.25480246      -1.05923164      -2.23638751
H       -2.90537345      -1.67932962       0.08477017     -23.52174223     -32.71717987      20.27248051       0.11538875      -0.06247256       0.11239613
6
Properties=species:S:1:pos:R:3:momenta:R:3:forces:R:3 energy=-3149.07883178681 free_energy=-3149.07883178681 dipole="-0.115788717490414 -0.357511347005244 -0.0558268958529148" pbc="F F F"
C       -1.61827810      -3.05762820       0.95433449     -52.34872931     -61.65833434     117.08203303      -2.68719895       1.48249606      -5.30896235
O       -2.48499289      -1.88495920       0.85863996    -118.23622833    -140.12917338       4.61747203      -0.56019664       0.39422569      -0.01096207
H       -1.26142226      -2.94563827       1.86054539       7.53559365       3.80260669     -39.55470786       3.04498186       0.17257394       4.48166638
H       -2.21295022      -3.93146001       0.91622217      22.21969363      21.76821545     -26.05943491      -0.63810543      -1.42736059      -0.10600582
H       -1.00047719      -2.98553701       0.02993277      21.65519771       8.97003329     -16.62018056       0.50284334      -0.45074116       0.94264571
H       -3.39408533      -2.12085990       0.59555371      -8.06898975     -22.54247507      15.57551905       0.33767582      -0.17119394       0.00161815
6
Properties=species:S:1:pos:R:3:momenta:R:3:forces:R:3 energy=-3149.04700593666 free_energy=-3149.04700593666 dipole="-0.0501243639952278 -0.370450505925641 0.080999435651856" pbc="F F F"
C       -1.62756353      -3.11529945       1.00304892     -32.93678112     -38.16950359       0.23649347      -1.39654205       2.75816177      -5.90934396
O       -2.68177477      -2.11576288       0.87833321    -131.46647899    -145.28317443       4.74111662      -0.53516854       0.29481287      -0.25557271
H       -1.32189564      -2.99949362       1.92183222      30.75487764      23.64643687      27.89809953       2.52951620      -0.06549632       5.11316411
H       -2.02899651      -4.03211443       0.73823903       4.93360768     -26.22405725     -29.70905480      -0.53253335      -2.41172006      -0.26015868
H       -0.89975548      -2.80419478       0.17532054       7.00834385       4.29223942      28.60807525      -0.35919536      -0.54169931       1.29294641
H       -3.55262775      -2.52282494       1.04436853      -6.87812651     -10.05237497      23.85029067       0.29392311      -0.03405894       0.01896484
6
Properties=species:S:1:pos:R:3:momenta:R:3:forces:R:3 energy=-3149.33691337418 free_energy=-3149.33691337418 dipole="0.0866452549884859 -0.21583513942418 0.26802491247917" pbc="F F F"
C       -1.64850664      -3.14151696       1.03957335     -26.48202216      -3.96855259     -70.20048463      -2.52013246      -0.04624221      -1.35831114
O       -2.87390132      -2.39384916       0.88727274    -142.92151981    -171.18081253      22.33921827      -0.40652200       0.74517054      -0.35587032
H       -1.44006132      -3.08998336       2.06876264      27.36333986      16.18738300      68.62408502       0.91191830      -0.96456678       1.56168539
H       -1.84872280      -4.08250930       0.49120728      12.57756720     -34.43345293     -24.73459563       0.72286040      -0.39214507       0.86562576
H       -0.92693465      -2.59588787       0.50061217       2.65639257      -2.57026604      42.04369295       1.28667896       0.78699522      -0.77607602
H       -3.47074706      -2.61033608       1.61863803      -1.29317155       4.89876164      17.34452093       0.00519680      -0.12921171       0.06294634
6
Properties=species:S:1:pos:R:3:momenta:R:3:forces:R:3 energy=-3149.1896171053 free_energy=-3149.1896171053 dipole="0.142831216746564 -0.0564821784192234 0.303749291918382" pbc="F F F"
C       -1.68828225      -3.16053448       1.07203520     -91.12460247     -12.02611152     -48.86300799      -1.56300436      -0.22848769       1.49724166
O       -3.04345779      -2.68575151       0.92477181    -105.77571372    -189.54289619      38.21240118      -0.31377341       0.56613333      -0.50444810
H       -1.47288067      -3.19445913       2.22412154      27.61915781      -6.35889446      54.70440699       0.03993195      -1.05755644      -1.97249315
H       -1.72085904      -4.02506710       0.35820230      16.18744284     -16.82998551      -1.09006172       1.01317681      -0.12273662       1.24068665
H       -1.01589920      -2.41528575       0.71402985      32.80866705      32.42942711      11.61902567       0.79091547       0.84475783      -0.63869152
H       -3.48869341      -2.62275936       1.77516072      -7.99743792       0.99164853       0.91039089       0.03275354      -0.00211040       0.37770445
6
Properties=species:S:1:pos:R:3:momenta:R:3:forces:R:3 energy=-3149.09494579002 free_energy=-3149.09494579002 dipole="0.1605695378567 0.109609926995802 0.26796058615383" pbc="F F F"
C       -1.75417150      -3.18004073       1.10253984     -99.12120425       3.20736219      -1.36302822      -0.39847980       2.64034105       2.62248266
O       -3.18681638      -2.99033059       0.97500009     -80.10596522    -201.76002185      55.70526668       0.13164826       0.00185637      -0.09934323
H       -1.52152640      -3.34129187       2.29183519      28.53311193     -29.39595256       3.86668060      -0.03833795      -0.76172287      -2.82959468
H       -1.58327719      -3.87825579       0.28451377      21.15498843     -10.52131288       8.74702595       0.93014245      -0.53820055       0.52246307
H       -1.18620353      -2.16777751       0.94257224      18.83984670      37.31301194       7.01780470      -0.71742495      -1.44989425      -0.25752287
H       -3.53286671      -2.55547706       1.77004703     -17.98332523       9.22673476     -18.31148437       0.09245199       0.10762025       0.04151505
6
Properties=species:S:1:pos:R:3:momenta:R:3:forces:R:3 energy=-3149.1996034356 free_energy=-3149.1996034356 dipole="0.1545508059536 0.296408565021158 0.115406179583441" pbc="F F F"
C       -1.84942919      -3.19688008       1.13072296     -90.39893076      37.39679572      53.58290412      -0.26722199       3.01032586       1.80797382
O       -3.29157550      -3.29540536       1.05831002     -86.75369724    -167.83990551      58.50955652       0.12843689      -0.20775212      -0.16963367
H       -1.50085356      -3.51873342       2.18661287      27.76662402     -29.73116912     -43.89394649      -0.04286825      -0.54769536      -1.74732636
H       -1.43676237      -3.63582779       0.18845183      48.34461588     -18.29227859       6.91059450       0.13688481       0.09324911       1.03507913
H       -1.58453200      -2.02526130       1.24930923      -9.01596258       0.51175175      -2.66956806      -0.14036774      -2.16413291      -0.91224014
H       -3.68614123      -2.46634460       1.38291908     -18.69663224     -14.08635652     -16.74839806       0.18513628      -0.18399460      -0.01385278
6
Properties=species:S:1:pos:R:3:momenta:R:3:forces:R:3 energy=-3149.40077542849 free_energy=-3149.40077542849 dipole="0.0833796715013153 0.343945937824288 0.0193639417927413" pbc="F F F"
C       -1.98078483      -3.19993772       1.17357434    -115.03682985      52.13844468      53.96494628       0.14943134       1.46321334      -1.72311851
O       -3.35962611      -3.57125908       1.13549344     -65.29955308    -161.64646030      62.41342228      -0.18956845      -0.43312738       0.07174921
H       -1.46581048      -3.64738309       2.00680454      35.43789788     -29.67947021     -46.99238169       0.22853326      -0.84903173       0.42846996